LAMMPS (29 Sep 2021 - Update 3)
  using 8 OpenMP thread(s) per MPI task
plugin load libdeepmd_lmp.so
Loading plugin: deepmd pair style v2.0 by Han Wang
Loading plugin: compute deeptensor/atom v2.0 by Han Wang
Loading plugin: fix dplr v2.0 by Han Wang
echo both

include		in.temp
variable	temperature equal 330.0
variable	tempDamp equal 0.1
include		in.pressure
variable        pressure equal 1.
variable        pressureDamp equal 1.0 # This is 1 ps
include		in.seed
variable        seed equal 745823

units		metal
atom_style	atomic
include		in.box
read_data       water.data
Reading data file ...
  triclinic box = (-0.040176314 0.19792126 0.080819291) to (18.247749 23.431257 22.132377) with tilt (0.0000000 0.0000000 0.0000000)
  1 by 1 by 1 MPI processor grid
  reading atoms ...
  864 atoms
  read_data CPU = 0.002 seconds
include 	in.setup
variable	out_freq equal 100
variable	out_freq2 equal 100

timestep	0.0005

neigh_modify    delay 10 every 1

include		in.deepmd
# This is a deepmd model

pair_style 	deepmd ../../frozen_model_1_compressed.pb ../../frozen_model_2_compressed.pb ../../frozen_model_3_compressed.pb ../../frozen_model_4_compressed.pb out_file md.out out_freq 100
Summary of lammps deepmd module ...
  >>> Info of deepmd-kit:
  installed to:       /home/ppiaggi/.conda/envs/deepmd
  source:             v2.1.1
  source branch:       HEAD
  source commit:      c4f0cec0
  source commit at:   2022-04-16 11:11:16 +0800
  surpport model ver.:1.1 
  build float prec:   double
  build with tf inc:  /home/ppiaggi/.conda/envs/deepmd/include;/home/ppiaggi/.conda/envs/deepmd/include
  build with tf lib:  /home/ppiaggi/.conda/envs/deepmd/lib/libtensorflow_cc.so;/home/ppiaggi/.conda/envs/deepmd/lib/libtensorflow_framework.so
  set tf intra_op_parallelism_threads: 0
  set tf inter_op_parallelism_threads: 0
  >>> Info of lammps module:
  use deepmd-kit at:  /home/ppiaggi/.conda/envs/deepmdpair_coeff	* *

thermo          ${out_freq}
thermo          100
thermo_style 	custom step temp pe etotal epair emol press lx ly lz vol

restart 	${out_freq} restart.lmp restart2.lmp
restart 	100 restart.lmp restart2.lmp


include         in.dump
dump            myDump all atom ${out_freq2} dump.water
dump            myDump all atom 100 dump.water

timer           timeout 03:50:00 every 1000
New timer settings: style=normal  mode=nosync  timeout=03:50:00

fix             thermo_print all print 10 "$(step) $(enthalpy) $(vol)" file thermo.txt screen no title "#step enthalpy vol"
fix             1 all nph tri ${pressure} ${pressure} ${pressureDamp}
fix             1 all nph tri 1 ${pressure} ${pressureDamp}
fix             1 all nph tri 1 1 ${pressureDamp}
fix             1 all nph tri 1 1 1
fix             2 all temp/csvr ${temperature} ${temperature} ${tempDamp} ${seed}
fix             2 all temp/csvr 330 ${temperature} ${tempDamp} ${seed}
fix             2 all temp/csvr 330 330 ${tempDamp} ${seed}
fix             2 all temp/csvr 330 330 0.1 ${seed}
fix             2 all temp/csvr 330 330 0.1 745823
fix             3 all momentum 10000 linear 1 1 1 rescale

velocity 	all create ${temperature} ${seed} dist gaussian
velocity 	all create 330 ${seed} dist gaussian
velocity 	all create 330 745823 dist gaussian

run             2000000 upto # 1 ns

CITE-CITE-CITE-CITE-CITE-CITE-CITE-CITE-CITE-CITE-CITE-CITE-CITE

Your simulation uses code contributions which should be cited:

- USER-DEEPMD package:

@article{Wang_ComputPhysCommun_2018_v228_p178,
  author = {Wang, Han and Zhang, Linfeng and Han, Jiequn and E, Weinan},
  doi = {10.1016/j.cpc.2018.03.016},
  url = {https://doi.org/10.1016/j.cpc.2018.03.016},
  year = 2018,
  month = {jul},
  publisher = {Elsevier {BV}},
  volume = 228,
  journal = {Comput. Phys. Commun.},
  title = {{DeePMD-kit: A deep learning package for many-body potential energy representation and molecular dynamics}},
  pages = {178--184}
}

CITE-CITE-CITE-CITE-CITE-CITE-CITE-CITE-CITE-CITE-CITE-CITE-CITE

Neighbor list info ...
  update every 1 steps, delay 10 steps, check yes
  max neighbors/atom: 2000, page size: 100000
  master list distance cutoff = 8
  ghost atom cutoff = 8
  binsize = 4, bins = 5 6 6
  1 neighbor lists, perpetual/occasional/extra = 1 0 0
  (1) pair deepmd, perpetual
      attributes: full, newton on
      pair build: full/bin/atomonly
      stencil: full/bin/3d
      bin: standard
Per MPI rank memory allocation (min/avg/max) = 10.99 | 10.99 | 10.99 Mbytes
Step Temp PotEng TotEng E_pair E_mol Press Lx Ly Lz Volume 
       0          330   -134648.42   -134611.61   -134648.42            0    34081.595    18.287925    23.233335    22.051557     9369.475 
     100    238.74589   -134634.88   -134608.25   -134634.88            0   -29193.809    18.251179    23.199348    22.025738    9326.0378 
     200    277.10885   -134635.84   -134604.93   -134635.84            0    6321.5481    18.146855    23.106329    21.958145    9207.2088 
     300    299.13096    -134635.1   -134601.73    -134635.1            0   -4095.9635    18.004667    22.987376    21.858152     9046.653 
     400    296.90782   -134634.28   -134601.16   -134634.28            0      1822.33    17.858257    22.864699    21.770774    8889.5224 
     500    313.02125   -134634.15   -134599.23   -134634.15            0    194.21063     17.74309    22.783514    21.697648    8771.2731 
     600    327.01847   -134633.47      -134597   -134633.47            0    2173.7271    17.668715     22.74806     21.66744    8708.7719 
     700     327.6141    -134633.5   -134596.95    -134633.5            0    3528.9401    17.642065    22.771795    21.669278     8705.448 
     800    332.30049   -134633.69   -134596.62   -134633.69            0    4197.1135    17.650684    22.846812    21.708956    8754.3942 
     900    326.11648   -134633.87   -134597.49   -134633.87            0   -120.49354    17.686037    22.952942    21.781706    8842.2092 
    1000    325.28129   -134633.25   -134596.97   -134633.25            0    1451.0433    17.737574    23.073706    21.872054    8951.6094 
    1100    318.76817   -134633.01   -134597.45   -134633.01            0    1461.2399    17.788856    23.186391    21.963131     9058.899 
    1200     315.6996   -134633.59   -134598.37   -134633.59            0   -2134.7465    17.832018    23.271843    22.036423    9144.7613 
    1300    312.68177   -134633.14   -134598.26   -134633.14            0   -1763.5351    17.853566    23.328201    22.077715    9195.1824 
    1400    319.94141   -134632.98   -134597.29   -134632.98            0   -3085.5464    17.857874    23.343759    22.088324    9207.9574 
    1500    318.30248   -134633.31    -134597.8   -134633.31            0   -1472.0622    17.847495    23.324108    22.066538    9185.7901 
    1600    327.81038   -134633.33   -134596.76   -134633.33            0   -1726.7585    17.821274    23.284558     22.02378    9138.9986 
    1700    329.90815   -134632.27   -134595.47   -134632.27            0   -1354.4218    17.794147    23.230526    21.962906    9078.7491 
    1800    319.51982   -134631.25   -134595.61   -134631.25            0    141.03606    17.763073    23.171345    21.895145    9011.9166 
    1900    325.05147   -134630.43   -134594.17   -134630.43            0   -970.43065    17.731258     23.11967    21.825265    8947.0672 
    2000    326.89683   -134630.71   -134594.24   -134630.71            0   -975.62311    17.701176    23.079416    21.769945    8893.7367 
    2100    341.03032    -134632.3   -134594.26    -134632.3            0    5369.7055    17.688363    23.058082    21.731752    8863.5062 
    2200    331.21785   -134631.69   -134594.74   -134631.69            0    2187.0418    17.694037    23.062135    21.728903    8866.7456 
    2300    333.97296   -134631.59   -134594.33   -134631.59            0    2259.8532     17.72481    23.093679    21.752951    8904.1586 
    2400    339.94767   -134631.32    -134593.4   -134631.32            0   -901.65764    17.781594    23.140983    21.795557    8968.5131 
    2500    338.10557   -134631.11    -134593.4   -134631.11            0     3336.225    17.844234    23.198891     21.85455    9047.0504 
    2600    318.52238   -134628.84    -134593.3   -134628.84            0   -4368.2348    17.911708    23.247698    21.912968    9124.6908 
    2700    334.67076   -134630.63    -134593.3   -134630.63            0    1379.1478    17.962545    23.283858    21.972909    9189.8912 
    2800    330.26506    -134631.4   -134594.55    -134631.4            0   -6601.1037    17.996816    23.301434    22.016832    9232.7941 
    2900    346.08457   -134631.35   -134592.74   -134631.35            0    179.10975     18.00866    23.289877    22.038146    9243.2279 
    3000    335.04435   -134630.68   -134593.31   -134630.68            0   -3170.3019    17.989886    23.260603    22.047651     9225.963 
    3100    346.99667   -134629.61   -134590.91   -134629.61            0    -242.2475    17.950047    23.211828    22.039445    9182.8097 
    3200    347.68373   -134630.07   -134591.29   -134630.07            0    2155.5862    17.895062    23.160873    22.017743    9125.5897 
    3300    324.25079   -134628.81   -134592.63   -134628.81            0   -2216.6482    17.835181    23.105549    21.990194    9061.9753 
    3400    337.60529   -134632.06    -134594.4   -134632.06            0    2123.9702    17.770386    23.053738    21.959579    8996.2647 
    3500    330.71755   -134631.73   -134594.84   -134631.73            0    1118.3264    17.709528     23.02019     21.92117    8936.7503 
    3600    339.68965   -134632.36   -134594.47   -134632.36            0    2379.0031     17.66686    23.005745     21.89557    8899.2198 
    3700      329.798   -134630.51   -134593.72   -134630.51            0    2708.1233    17.653385    23.018766    21.887136     8894.038 
    3800    333.41395   -134631.64   -134594.45   -134631.64            0    3299.4653    17.670945    23.065214    21.905093    8928.1685 
    3900    324.06086   -134631.71   -134595.56   -134631.71            0    1567.4138    17.708175    23.143847    21.944661    8993.6965 
    4000    325.17757    -134632.2   -134595.92    -134632.2            0   -322.73036    17.762156    23.229261    21.999229      9076.92 
    4100    324.70573   -134631.79   -134595.57   -134631.79            0   -532.55407    17.818971      23.3207    22.051452    9163.5001 
    4200     332.2537   -134631.21   -134594.15   -134631.21            0    -3798.213    17.873139    23.402887    22.085697     9238.073 
    4300     324.7134   -134631.47   -134595.25   -134631.47            0   -2548.1578    17.908269    23.465031    22.095977    9285.1295 
    4400    321.08011   -134631.31   -134595.49   -134631.31            0    -2659.004    17.932819     23.49365    22.067695    9297.2824 
    4500    331.50419   -134632.25   -134595.27   -134632.25            0   -2415.3664    17.932727    23.486217    22.005185     9267.966 
    4600    311.58825   -134631.31   -134596.55   -134631.31            0   -2919.7418    17.902447    23.430966    21.921073    9195.2681 
    4700    331.20365   -134633.12   -134596.17   -134633.12            0    1348.8983    17.858155    23.343718    21.815398    9094.3101 
    4800    339.06756   -134633.09   -134595.27   -134633.09            0    179.82967    17.811535    23.242186    21.725599     8993.942 
    4900    332.07518    -134631.7   -134594.66    -134631.7            0    5710.6658    17.772988    23.156569    21.659628    8914.2675 
    5000    338.24514   -134632.55   -134594.82   -134632.55            0    206.21286    17.760254    23.087026    21.620884    8865.2422 
    5100    322.37091   -134631.16    -134595.2   -134631.16            0    4398.3638    17.762302    23.056423    21.617966     8853.317 
    5200    330.09132    -134632.8   -134595.98    -134632.8            0    2634.0874    17.795103    23.062017    21.650444    8885.1466 
    5300    326.70169   -134633.35    -134596.9   -134633.35            0    1506.3934    17.842212    23.099098    21.722281    8952.5992 
    5400    324.54888   -134632.65   -134596.44   -134632.65            0   -193.96068    17.895412    23.147101    21.817289    9037.3083 
    5500    311.79308   -134631.48    -134596.7   -134631.48            0   -2365.6197    17.943146    23.187084    21.917229    9118.6462 
    5600    316.70432   -134633.15   -134597.82   -134633.15            0   -378.12274    17.978557     23.21402    22.007537     9184.946 
    5700    321.18795   -134632.83      -134597   -134632.83            0   -3869.4466    17.997461     23.21966    22.078281    9226.4017 
    5800    315.98266   -134632.09   -134596.84   -134632.09            0   -3761.0663    17.994656    23.201324    22.117804    9234.1798 
    5900    321.65307   -134632.32   -134596.44   -134632.32            0   -61.653982    17.964703    23.164811     22.12313    9206.5172 
    6000    333.74767   -134632.08   -134594.85   -134632.08            0   -3927.7739    17.908895    23.122473    22.103041    9152.8236 
    6100    331.14236   -134631.27   -134594.33   -134631.27            0    328.51464    17.854003    23.064353    22.062126    9084.9852 
    6200    344.35451   -134632.23   -134593.82   -134632.23            0   -346.78098    17.790702    23.015204    22.014095    9013.8172 
    6300    329.07584   -134633.02   -134596.31   -134633.02            0    1299.4893    17.741855     22.97498    21.972863    8956.5515 
    6400    323.53229   -134633.02   -134596.93   -134633.02            0    1056.8127    17.712793    22.963807    21.932808    8921.2389 
    6500     326.8452   -134632.63   -134596.17   -134632.63            0    396.67514    17.700828    22.981569    21.910809    8913.1593 
    6600    334.24568   -134633.58    -134596.3   -134633.58            0    4048.0892    17.713026    23.032835    21.902259    8935.7099 
    6700     331.1767   -134631.88   -134594.94   -134631.88            0    56.787176    17.750617    23.114952    21.904147    8987.3735 
    6800    338.02708   -134629.96   -134592.25   -134629.96            0    1005.0396    17.794315    23.207037    21.927199    9054.9095 
    6900    329.59806   -134629.21   -134592.45   -134629.21            0   -1427.7753    17.856491     23.29972     21.94565    9130.5143 
    7000    333.20507   -134630.69   -134593.52   -134630.69            0   -1122.3153    17.910842    23.377156    21.961982    9195.5816 
    7100    332.61386   -134630.24   -134593.14   -134630.24            0   -2366.1155    17.943332    23.437783    21.968543     9238.913 
    7200     342.4971   -134630.57   -134592.36   -134630.57            0    -2515.018    17.964518    23.469124    21.946295    9252.8108 
    7300    334.78823   -134629.75   -134592.41   -134629.75            0   -799.54081    17.960051    23.462611    21.909944    9232.6246 
    7400    322.61446   -134630.15   -134594.16   -134630.15            0   -1466.9571    17.932157     23.43009    21.848963    9179.8865 
    7500    346.43807   -134632.17   -134593.52   -134632.17            0    243.33893    17.898765    23.354537    21.781276    9104.9517 
    7600    346.74641   -134632.96   -134594.28   -134632.96            0    432.04343    17.860505    23.281431    21.714064    9029.1013 
    7700    326.09546   -134630.76   -134594.38   -134630.76            0   -269.36742    17.825353    23.202142    21.680647    8966.8202 
    7800    331.68079   -134632.31   -134595.31   -134632.31            0    1887.1379    17.800436     23.13171    21.677095    8925.6419 
    7900    339.05509   -134632.85   -134595.03   -134632.85            0    1574.2834     17.78838    23.082528    21.702344    8910.9993 
    8000    331.57482   -134631.68    -134594.7   -134631.68            0    4489.1261    17.789886    23.049338    21.777555    8929.7797 
    8100    314.08746   -134630.89   -134595.85   -134630.89            0    47.724126    17.812921    23.048465    21.868336    8978.2742 
    8200    319.06064   -134631.96   -134596.37   -134631.96            0    2763.3851    17.842787    23.061186    21.979899    9044.1973 
    8300    323.05555   -134632.57   -134596.53   -134632.57            0   -2944.0792    17.882477    23.076112    22.091498    9116.2342 
    8400     320.2784   -134631.77   -134596.04   -134631.77            0   -834.84867    17.911797    23.102599    22.176258    9176.7367 
    8500    333.52106   -134631.93   -134594.73   -134631.93            0   -5107.0876    17.931271    23.118081     22.23743    9218.2279 
    8600    331.76916   -134632.44   -134595.43   -134632.44            0    1960.8352    17.941061     23.12694    22.267919     9239.446 
    8700    321.72675   -134631.51   -134595.62   -134631.51            0   -1907.5367    17.935618    23.120204     22.27973    9238.8504 
    8800    328.54605   -134630.92   -134594.27   -134630.92            0    362.50098    17.920917    23.107044    22.253901    9215.3276 
    8900    329.08699    -134630.6   -134593.89    -134630.6            0    -2497.265    17.896343    23.084296    22.201929    9172.1604 
    9000    339.17476   -134630.77   -134592.93   -134630.77            0    269.97791    17.862534    23.057071    22.124114     9111.987 
    9100    338.43482   -134629.49   -134591.74   -134629.49            0    1120.8675    17.824402    23.038889    22.032198    9047.6192 
    9200     324.3675   -134630.12   -134593.94   -134630.12            0   -1587.4277    17.788765    23.037376    21.941947    8991.9521 
    9300    341.78718   -134631.75   -134593.62   -134631.75            0    3757.8528    17.762724    23.056594    21.864009    8954.3592 
    9400    329.59312   -134631.02   -134594.25   -134631.02            0   -417.51403     17.75708    23.098987    21.798502    8941.1036 
    9500    336.87464   -134630.81   -134593.23   -134630.81            0    6367.5779    17.772227    23.161007    21.748167    8952.0384 
    9600    338.67806   -134631.24   -134593.46   -134631.24            0   -1360.4891    17.801041    23.243657    21.714397     8984.577 
    9700    329.63637   -134630.88    -134594.1   -134630.88            0   -105.24534    17.838151    23.336673    21.696933    9032.0667 
    9800    332.58177   -134630.09   -134592.99   -134630.09            0   -1084.9626    17.874245    23.424344    21.700027    9085.6375 
    9900    354.52206   -134630.88   -134591.34   -134630.88            0    2318.2446    17.906157    23.502135     21.71959    9140.3184 
   10000    335.33309   -134629.44   -134592.04   -134629.44            0   -1328.1684    17.929682    23.561121    21.750121    9188.1951 
   10100    341.99612   -134629.17   -134591.02   -134629.17            0   -1262.6245    17.939664     23.59626    21.783765    9221.2633 
   10200    362.07893   -134630.03   -134589.64   -134630.03            0   -3919.4943     17.93746    23.604389    21.815589    9236.7808 
   10300    345.32745   -134628.94   -134590.42   -134628.94            0    38.033344    17.920122    23.575474    21.845008    9228.9778 
   10400    346.08873   -134628.32   -134589.71   -134628.32            0   -1396.4509    17.891917    23.526577    21.870184    9205.9381 
   10500    354.93802   -134629.41   -134589.82   -134629.41            0   -987.39661    17.862782    23.444212    21.892947    9168.3033 
   10600    356.76961   -134630.82   -134591.02   -134630.82            0    -1961.436    17.824104    23.350479    21.910838    9119.3208 
   10700    334.69047   -134628.52   -134591.19   -134628.52            0    475.60838    17.784617    23.244744    21.935541    9068.1277 
   10800    347.75921   -134629.58   -134590.79   -134629.58            0    686.61738    17.746144    23.141683    21.966672    9021.1774 
   10900     328.4888   -134629.64      -134593   -134629.64            0     -164.676    17.714639    23.055765    22.002336    8986.2939 
   11000    345.12097   -134630.68   -134592.18   -134630.68            0    63.742388    17.698145    22.978282    22.044267     8964.807 
   11100    343.01565   -134632.12   -134593.86   -134632.12            0    833.64922    17.698712    22.934668    22.084248    8964.3071 
   11200    333.70085   -134632.38   -134595.16   -134632.38            0     3472.466     17.72027     22.91512    22.127487    8985.1341 
   11300    314.84236   -134630.36   -134595.24   -134630.36            0   -953.95626    17.757298    22.925188    22.168798    9024.6824 
   11400    332.02336   -134631.16   -134594.13   -134631.16            0    2298.9769    17.806171    22.937291    22.203762     9068.579 
   11500    336.45112   -134631.55   -134594.02   -134631.55            0   -3973.9736    17.842572    22.960672    22.222803    9104.1813 
   11600    328.22503   -134631.82    -134595.2   -134631.82            0   -1858.8341    17.877467    22.991985    22.214841    9131.1541 
   11700    330.34451   -134631.17   -134594.32   -134631.17            0    2697.7032    17.904256    23.024588    22.189357    9147.2989 
   11800    328.30004   -134632.14   -134595.52   -134632.14            0    718.15127    17.924848    23.057716    22.144091    9152.2869 
   11900    328.42584   -134631.88   -134595.24   -134631.88            0   -4462.2422    17.938153    23.086416    22.082705    9145.0588 
   12000    333.89661   -134630.14    -134592.9   -134630.14            0    2687.2635    17.948297    23.114676    21.996208    9125.5466 
   12100    333.16855   -134628.77    -134591.6   -134628.77            0   -3115.2645    17.937896    23.139628    21.915463     9096.588 
   12200    330.41983   -134628.91   -134592.06   -134628.91            0    5701.0973    17.927796     23.16806    21.818031     9062.168 
   12300    349.30115   -134630.38   -134591.42   -134630.38            0   -2618.3717    17.907093    23.197056    21.735703    9028.8335 
   12400    331.81643   -134628.86   -134591.84   -134628.86            0    1991.6175    17.889068    23.229404    21.657382     8999.777 
   12500     336.4439   -134629.67   -134592.14   -134629.67            0    24.425344    17.879796    23.266069    21.594388    8983.1049 
   12600    345.26718   -134631.58   -134593.07   -134631.58            0     699.5422    17.865922    23.313048    21.565105    8982.0621 
   12700    340.62431    -134630.2    -134592.2    -134630.2            0    1812.4362    17.861487    23.367243    21.562469    8999.6075 
   12800    342.54874   -134630.09   -134591.88   -134630.09            0    1745.2918    17.860905    23.425055    21.587397     9032.009 
   12900    335.66016    -134630.2   -134592.76    -134630.2            0   -1329.2968    17.867106    23.467037     21.63662    9071.9762 
   13000    349.62044   -134630.45   -134591.45   -134630.45            0    844.41049    17.871864    23.489755    21.698621    9109.2049 
   13100    335.23284    -134630.1    -134592.7    -134630.1            0   -1621.0708    17.866408    23.495258    21.774528     9140.421 
   13200    331.18285   -134629.51   -134592.57   -134629.51            0   -1630.6763    17.861748    23.472517    21.857177    9163.8443 
   13300    334.34363   -134630.66   -134593.36   -134630.66            0   -612.49895    17.839423    23.428738     21.95305    9175.3906 
   13400    346.33316    -134631.9   -134593.27    -134631.9            0   -1152.9649     17.80375    23.365474    22.035458    9166.5973 
   13500    316.09846   -134629.94   -134594.68   -134629.94            0    -3379.297    17.758878     23.27776    22.105426    9138.0932 
   13600    327.75333   -134629.52   -134592.96   -134629.52            0    2647.7842    17.706013    23.183109    22.159483    9096.0338 
   13700     338.5534   -134630.26    -134592.5   -134630.26            0   -2078.3158    17.670046    23.091431    22.192847    9055.2734 
   13800    338.92623   -134631.49   -134593.69   -134631.49            0    5788.9279    17.647968    23.015632    22.218589    9024.7278 
   13900    334.72142   -134631.34      -134594   -134631.34            0   -2198.3803    17.649544    22.958297    22.239076    9011.3506 
   14000    323.30465   -134630.85   -134594.79   -134630.85            0    850.67515    17.678574    22.922215    22.243229    9013.6701 
   14100    323.52961   -134632.39    -134596.3   -134632.39            0    971.66588    17.716386    22.907962    22.243707    9027.5259 
   14200    331.28422    -134632.6   -134595.64    -134632.6            0    444.62286    17.767711    22.922853    22.224106     9051.581 
   14300    324.24098   -134630.76   -134594.59   -134630.76            0    405.01525    17.828107     22.94472     22.20136    9081.7085 
   14400    320.26758   -134631.59   -134595.86   -134631.59            0    212.43132    17.884893    22.986382       22.157    9108.9416 
   14500    328.19464    -134632.8   -134596.19    -134632.8            0   -2223.4018    17.931568    23.034954    22.094483    9126.1893 
   14600    314.14957    -134631.6   -134596.56    -134631.6            0    1438.1051    17.971779    23.082042    22.015004    9132.3818 
   14700    318.86801   -134632.36   -134596.79   -134632.36            0   -1746.6937    17.997296    23.125513    21.932932    9128.4141 
   14800    325.23398   -134631.41   -134595.13   -134631.41            0    863.52128    18.010055    23.165001    21.857487    9119.0078 
   14900    328.46467   -134630.65   -134594.01   -134630.65            0    -2318.687    18.017768    23.199024    21.784093    9105.6343 
   15000    326.62054   -134630.62   -134594.19   -134630.62            0   -127.10667    18.010423     23.21797    21.727003    9085.4824 
   15100    323.85627   -134629.95   -134593.83   -134629.95            0   -815.13921     17.99797    23.228778    21.678382    9063.0999 
   15200    335.26246   -134632.45   -134595.05   -134632.45            0    26.155561    17.968864    23.238903    21.659834    9044.6419 
   15300    318.75851   -134630.65   -134595.09   -134630.65            0    1963.3884    17.941581    23.236569    21.658321    9029.3709 
   15400    333.12171   -134631.78   -134594.62   -134631.78            0    2814.4471    17.915705    23.235096    21.683492    9026.2552 
   15500    335.26502   -134631.68   -134594.28   -134631.68            0    466.82845    17.889033    23.249808    21.730533    9038.0891 
   15600    322.10753   -134632.26   -134596.33   -134632.26            0    2254.3677    17.869181    23.258965    21.804935    9062.5377 
   15700    331.85084   -134632.72    -134595.7   -134632.72            0   -4386.7352    17.849344    23.283788    21.880853    9093.6898 
   15800    325.99076    -134631.1   -134594.73    -134631.1            0    4891.3534    17.832788     23.29484    21.960501    9122.6548 
   15900    321.59761   -134630.18   -134594.31   -134630.18            0   -2102.8962    17.817445    23.302608    22.025582    9144.8663 
   16000    328.31917   -134631.01   -134594.38   -134631.01            0   -2544.9593    17.795037      23.2953    22.071784    9149.6533 
   16100    335.49811   -134631.63    -134594.2   -134631.63            0    380.45837     17.76735    23.262701    22.105337    9136.5013 
   16200    326.13308   -134630.16   -134593.78   -134630.16            0    578.29499    17.736946    23.231455    22.117595    9113.6669 
   16300    324.28655   -134630.39   -134594.22   -134630.39            0    172.84407    17.718192    23.182048    22.119248     9085.348 
   16400    318.21122   -134630.56   -134595.06   -134630.56            0   -877.32914    17.697183    23.132062    22.118133    9054.5518 
   16500    324.06262   -134630.56   -134594.41   -134630.56            0    -377.2129     17.68542    23.087665     22.10655    9026.4372 
   16600    345.04265   -134632.73   -134594.24   -134632.73            0    1657.5392    17.689639    23.051544    22.099372    9011.5379 
   16700    328.91831   -134631.55   -134594.86   -134631.55            0    3306.4572    17.712091     23.03529    22.095875    9015.1867 
   16800    320.30316   -134630.77   -134595.04   -134630.77            0   -45.609439    17.748094    23.041197    22.095559    9035.6991 
   16900    326.25568   -134630.78   -134594.38   -134630.78            0    179.22639    17.798857     23.05486    22.089261    9064.3316 
   17000    320.86799   -134630.22   -134594.42   -134630.22            0     430.3381    17.848046    23.076677    22.079964    9094.1542 
   17100    336.90825   -134631.06   -134593.47   -134631.06            0   -254.70749    17.900666    23.116998     22.04814    9123.7332 
   17200    324.17603   -134631.11   -134594.95   -134631.11            0   -1457.1782    17.949562    23.158307    22.016468    9151.8378 
   17300    327.58627   -134631.09   -134594.54   -134631.09            0    653.45256    17.996359    23.199977    21.973568     9174.297 
   17400    334.70603   -134630.69   -134593.35   -134630.69            0   -868.19029     18.02661    23.237078    21.924944    9184.0466 
   17500    320.38195   -134629.53   -134593.79   -134629.53            0   -4561.1647    18.045248    23.262828     21.86457     9178.386 
   17600     322.9235   -134630.07   -134594.04   -134630.07            0    457.31935    18.048074    23.274104    21.793482    9154.4118 
   17700    329.30464   -134631.14    -134594.4   -134631.14            0   -926.83397    18.035238    23.266632    21.710084    9109.9694 
   17800    320.97175   -134632.17   -134596.37   -134632.17            0   -425.86182    18.008488    23.250338    21.628843    9056.0708 
   17900    334.43617   -134632.93   -134595.63   -134632.93            0    1303.7764    17.971378     23.23666    21.559595    9003.1748 
   18000    327.01999   -134632.91   -134596.43   -134632.91            0    2026.1274    17.930102    23.226067    21.523617    8963.4188 
   18100    315.40779   -134632.39   -134597.21   -134632.39            0   -242.26832    17.883388    23.238824    21.522906     8944.681 
   18200    334.15485   -134633.85   -134596.58   -134633.85            0    3702.8079    17.845378    23.255698    21.555713     8945.766 
   18300    340.15438   -134633.54   -134595.59   -134633.54            0   -1204.7959     17.81603    23.288881    21.624578    8972.3708 
   18400    325.59125   -134633.26   -134596.94   -134633.26            0     4891.556    17.795891    23.327639    21.733488    9022.3554 
   18500    328.39386   -134632.27   -134595.64   -134632.27            0   -1605.7033    17.785614    23.372129     21.85875    9086.4127 
   18600    317.25849   -134630.76   -134595.37   -134630.76            0   -2304.7716    17.765084    23.398193    22.003334    9146.1449 
   18700    319.04802   -134631.98   -134596.39   -134631.98            0   -1197.3517    17.740576    23.408465    22.123688    9187.5178 
   18800    328.28046   -134631.86   -134595.24   -134631.86            0   -615.86321    17.715885    23.390078    22.215591    9205.6064 
   18900    327.29603   -134631.76   -134595.25   -134631.76            0   -551.78604    17.684204    23.349705    22.282408    9200.8732 
   19000    333.62238   -134632.22      -134595   -134632.22            0   -2740.3363    17.657087    23.298492    22.309288    9177.6726 
   19100    339.00415   -134633.55   -134595.73   -134633.55            0    1321.7663    17.633224     23.23563    22.310894    9141.1983 
   19200    329.11697   -134631.46   -134594.75   -134631.46            0    122.18808    17.622253    23.175139    22.285638    9101.4137 
   19300    319.11705   -134630.07   -134594.48   -134630.07            0   -2492.4126     17.61867    23.129957    22.238612    9062.6592 
   19400    338.23627   -134632.88   -134595.14   -134632.88            0     2627.368    17.631532    23.087035     22.17619    9027.0354 
   19500    347.42692   -134632.93   -134594.17   -134632.93            0    131.84052    17.660116    23.056217    22.097561    8997.5848 
   19600    330.03668   -134631.15   -134594.34   -134631.15            0    423.34743    17.695251    23.044468    22.022092    8980.1169 
   19700    336.03181   -134632.68   -134595.19   -134632.68            0    2614.1537    17.754682    23.041017    21.953682    8980.9425 
   19800    317.24132   -134632.21   -134596.82   -134632.21            0    1331.0948    17.828914    23.048195    21.894086    8996.8119 
   19900    323.96578   -134633.45   -134597.32   -134633.45            0   -809.33873    17.898633    23.072302    21.846497    9021.7874 
   20000     313.4386   -134631.61   -134596.64   -134631.61            0   -1639.3891     17.97018    23.104889    21.799519    9051.1388 
   20100    311.14252    -134631.7   -134596.99    -134631.7            0    2055.6037    18.029731    23.136897    21.768622    9080.8245 
   20200    326.48931   -134633.57   -134597.15   -134633.57            0   -2344.8808    18.074222    23.174173    21.743981    9107.5787 
   20300    312.74346   -134632.67   -134597.78   -134632.67            0    -1689.874    18.110292    23.195609    21.721825    9124.8882 
   20400    326.46388   -134633.25   -134596.83   -134633.25            0   -908.74782    18.122564    23.205227    21.706829    9128.5513 
   20500    324.64272   -134632.45   -134596.24   -134632.45            0   -1812.4168    18.109458    23.203868    21.700095    9118.5854 
   20600    329.93657   -134632.57   -134595.76   -134632.57            0    542.73719    18.080421    23.191807    21.709283     9103.085 
   20700    320.08848   -134632.83   -134597.12   -134632.83            0    1929.4171    18.037591     23.17966    21.728855    9084.9478 
   20800    336.67031   -134634.36    -134596.8   -134634.36            0   -1753.3735    17.977118    23.161323    21.770468    9064.6532 
   20900    320.19086   -134631.56   -134595.84   -134631.56            0    2374.9363    17.909191    23.150923    21.810269    9042.8494 
   21000    316.09739   -134631.87   -134596.61   -134631.87            0   -2016.9222    17.845563    23.142178    21.856879    9026.5677 
   21100     318.8553   -134631.95   -134596.38   -134631.95            0    1071.4988     17.78957    23.140421    21.911603      9020.09 
   21200     332.5208   -134633.58   -134596.48   -134633.58            0     316.1992    17.739886    23.148229    21.969066    9021.5303 
   21300    325.57749    -134632.7   -134596.38    -134632.7            0    2836.7367    17.704748    23.163095     22.02214    9031.2086 
   21400     316.0538   -134632.49   -134597.23   -134632.49            0    260.15938    17.678796    23.187012    22.073371    9048.2821 
   21500    325.40802   -134634.28   -134597.98   -134634.28            0     -167.956    17.663372    23.211584    22.114202     9066.709 
   21600     322.4334   -134632.92   -134596.95   -134632.92            0    2503.8226    17.652817    23.234091    22.138018    9079.8454 
   21700    322.64002   -134632.15   -134596.16   -134632.15            0   -4949.8985    17.647692    23.249933    22.150569    9088.5482 
   21800    329.95749   -134633.45   -134596.64   -134633.45            0    2338.5359    17.654741    23.262932    22.134265    9090.5659 
   21900    319.40388   -134632.66   -134597.03   -134632.66            0   -1433.3015    17.672894     23.26273    22.103457    9087.1678 
   22000    331.44394    -134633.1   -134596.12    -134633.1            0    246.68858    17.697853    23.264337    22.049026    9078.2196 
   22100    328.45368   -134630.63   -134593.99   -134630.63            0    1310.6982    17.726986    23.254892    21.988064    9064.3403 
   22200    327.60446   -134631.32   -134594.78   -134631.32            0    115.69113    17.766117     23.24302    21.921198    9052.1003 
   22300    324.81901   -134632.51   -134596.28   -134632.51            0   -3220.4441    17.804139      23.2337    21.860492    9042.7243 
   22400    337.00795   -134632.36   -134594.77   -134632.36            0    3524.9856    17.849745    23.218185    21.802793    9035.9209 
   22500    317.54842   -134631.29   -134595.86   -134631.29            0    427.38149    17.901809    23.208442    21.749812    9036.4616 
   22600    320.71859   -134631.01   -134595.24   -134631.01            0    41.253959    17.952804    23.199331    21.714581    9043.9718 
   22700     333.2389   -134632.66   -134595.48   -134632.66            0   -2090.5634    18.003879    23.192662     21.68631    9055.2899 
   22800    324.36276   -134632.52   -134596.34   -134632.52            0    208.34836    18.043632    23.190657    21.671394    9068.2578 
   22900    324.71667    -134632.8   -134596.57    -134632.8            0   -320.88503     18.07311     23.18711    21.664871    9078.9504 
   23000    317.02643   -134631.56   -134596.19   -134631.56            0   -1360.3176    18.087033    23.173428    21.664668    9080.4974 
   23100    327.82824   -134632.25   -134595.68   -134632.25            0    1793.1915    18.081668    23.149521     21.68024    9074.9574 
   23200    338.63541   -134632.53   -134594.75   -134632.53            0   -377.69258    18.067887    23.122397    21.707755    9068.9107 
   23300    341.15824   -134632.03   -134593.97   -134632.03            0    2006.4663    18.042751    23.100392     21.75852    9068.8346 
   23400    326.24454   -134631.72   -134595.33   -134631.72            0    1400.6558      18.0077    23.097963    21.822456     9076.858 
   23500    327.52259    -134631.3   -134594.76    -134631.3            0   -1649.2778     17.97146    23.093051    21.906321    9091.4701 
   23600    308.51153   -134630.58   -134596.17   -134630.58            0    846.37552    17.923018    23.100484    21.997524    9107.6432 
   23700    325.11415   -134632.84   -134596.57   -134632.84            0    1387.7896    17.873078    23.100556    22.089965    9120.4618 
   23800    328.77898   -134633.65   -134596.98   -134633.65            0   -2422.2096    17.812017    23.115085    22.163336     9125.228 
   23900    333.27936   -134632.06   -134594.88   -134632.06            0    -339.0051     17.74865    23.123184    22.224365    9120.9975 
   24000     339.2699   -134630.12   -134592.27   -134630.12            0    1248.7517    17.692691     23.13152    22.264611    9111.9883 
   24100    332.11166   -134630.37   -134593.32   -134630.37            0   -2301.3638    17.646154    23.148092     22.27869    9100.2834 
   24200    335.89241   -134629.74   -134592.27   -134629.74            0    718.07411    17.611116    23.156551    22.275761    9084.3381 
   24300     342.6152   -134631.18   -134592.96   -134631.18            0    2376.7619    17.588323    23.186345    22.247604    9072.7714 
   24400    333.40048   -134629.94   -134592.75   -134629.94            0    1686.8818    17.582903    23.224004    22.198225     9064.543 
   24500    341.43331    -134632.6   -134594.51    -134632.6            0   -3625.7342    17.595943    23.269807      22.1394    9065.0702 
   24600    325.53243   -134631.91    -134595.6   -134631.91            0    1155.3877    17.613711    23.324619    22.076518    9069.7644 
   24700    333.95461   -134632.36   -134595.11   -134632.36            0    2216.9794    17.649047    23.364768    22.006549    9074.7502 
   24800    339.69107   -134632.07   -134594.18   -134632.07            0   -349.25428    17.692151    23.400984     21.93348    9080.7617 
   24900    333.73723   -134631.36   -134594.13   -134631.36            0   -513.00531    17.739757    23.424795    21.868848    9087.6036 
   25000    322.95063   -134628.94   -134592.91   -134628.94            0   -1275.4709    17.794701    23.433073     21.80749    9093.3861 
   25100    347.63748   -134629.56   -134590.78   -134629.56            0    448.92217    17.848873    23.427579    21.745477    9092.9989 
   25200    357.46513   -134629.64   -134589.77   -134629.64            0    1306.8613    17.895307    23.413433    21.705679    9094.4747 
   25300    345.77498   -134629.22   -134590.65   -134629.22            0   -547.04282     17.93582    23.393582    21.681854    9097.3387 
   25400    342.40707   -134630.41   -134592.22   -134630.41            0    2345.7378    17.977272    23.356881    21.680028     9103.292 
   25500    324.39203   -134628.59    -134592.4   -134628.59            0   -2304.4713    18.002376    23.324822    21.698431    9111.2194 
   25600    331.19842   -134631.51   -134594.56   -134631.51            0   -296.43628    18.031033    23.285417    21.715954    9117.6633 
   25700    330.83728   -134631.48   -134594.57   -134631.48            0    784.94031     18.04809     23.23522    21.742935    9117.9294 
   25800     329.0302   -134631.01   -134594.31   -134631.01            0    684.72202    18.048042    23.176023    21.781916    9110.9803 
   25900    336.53253   -134629.96   -134592.42   -134629.96            0    2069.3225    18.038054    23.126489    21.812176    9099.0989 
   26000    336.44861   -134629.95   -134592.42   -134629.95            0    112.58939    18.017641    23.082296    21.848935     9086.721 
   26100     342.5485   -134631.07   -134592.85   -134631.07            0   -1338.2276    17.992408    23.042708    21.901535    9080.2403 
   26200    342.36953   -134631.91   -134593.72   -134631.91            0     159.4524    17.965289    23.018449    21.963734    9082.7305 
   26300    324.22839   -134630.13   -134593.97   -134630.13            0    1130.1258    17.934902    23.003175    22.022398     9085.554 
   26400    340.83376   -134630.65   -134592.63   -134630.65            0    2078.1927     17.90054    22.984166    22.086037    9086.8355 
   26500    330.20618   -134631.22   -134594.39   -134631.22            0   -617.90168    17.870021    22.978664    22.135196    9089.3584 
   26600    326.02799   -134631.85   -134595.48   -134631.85            0    2796.4822    17.838577    22.980555    22.177933    9091.6305 
   26700    329.95551   -134631.16   -134594.35   -134631.16            0   -699.37177    17.815128    22.985157    22.207421    9093.5727 
   26800    332.60968   -134630.04   -134592.93   -134630.04            0   -109.92657     17.79684    23.010154    22.220461    9099.4567 
   26900    334.99626   -134629.56   -134592.19   -134629.56            0   -1376.5825    17.784748    23.041627    22.221013    9105.9383 
   27000    340.19464    -134630.5   -134592.55    -134630.5            0    574.03046    17.778655    23.081237    22.199009    9109.4377 
   27100    334.83941   -134631.11   -134593.75   -134631.11            0    2800.9677    17.777315    23.129949    22.165488    9114.1911 
   27200    316.13987   -134630.57    -134595.3   -134630.57            0   -1201.2625    17.779892    23.181915    22.116394    9115.7568 
   27300    328.05004   -134631.45   -134594.85   -134631.45            0    2699.1647    17.779443    23.226951    22.052733    9106.9465 
   27400    334.67511   -134632.01   -134594.68   -134632.01            0   -1340.1233    17.783837    23.260535    21.979265    9091.9771 
   27500    339.54259   -134631.97   -134594.09   -134631.97            0   -1637.6282     17.79174    23.293451    21.904663    9077.9721 
   27600    330.78798   -134630.93   -134594.03   -134630.93            0    1548.3096    17.809232    23.326331    21.819646    9064.4053 
   27700    329.22523    -134629.6   -134592.87    -134629.6            0    1738.6457    17.825247    23.355245    21.749778    9054.7157 
   27800    339.06415   -134631.98   -134594.15   -134631.98            0    1338.4236    17.848326    23.377827    21.691356    9050.8287 
   27900     326.9241    -134631.5   -134595.04    -134631.5            0    163.48833    17.871275    23.396294    21.648501    9051.7062 
   28000     321.2322   -134631.42   -134595.59   -134631.42            0    662.41804    17.897014    23.414862    21.619735    9059.8821 
   28100    327.88676   -134631.24   -134594.66   -134631.24            0   -534.42108    17.918232    23.422587    21.612541    9070.5961 
   28200    328.38197   -134630.89   -134594.26   -134630.89            0   -10.670367    17.928408    23.417028    21.618398    9076.0527 
   28300    325.17169   -134630.51   -134594.24   -134630.51            0    -1690.566    17.930304    23.395272    21.640208    9077.7286 
   28400    328.64377   -134631.02   -134594.36   -134631.02            0   -104.28583    17.931489    23.337821     21.68228    9073.6415 
   28500    355.54642   -134632.83   -134593.17   -134632.83            0   -401.01071    17.922849    23.274142      21.7411    9069.0594 
   28600    337.98351   -134631.91   -134594.21   -134631.91            0   -1990.0885     17.91572    23.186986      21.8268     9067.105 
   28700    338.48773   -134631.83   -134594.07   -134631.83            0    1209.7218    17.903669    23.103125    21.926523     9069.483 
   28800    330.89052   -134630.97   -134594.06   -134630.97            0    4115.6383    17.891026    23.023239    22.040085    9078.5176 
   28900     326.8868   -134629.99   -134593.53   -134629.99            0   -2042.7834    17.883633    22.963958    22.147699    9095.5947 
   29000    336.63438    -134632.2   -134594.64    -134632.2            0   -1426.3878    17.877783    22.922367    22.233356    9111.2537 
   29100    331.85924   -134631.95   -134594.93   -134631.95            0    -3571.624    17.872088    22.892485    22.289163    9119.3106 
   29200    316.90077   -134631.15    -134595.8   -134631.15            0    2587.6595    17.857577    22.877885    22.313649    9116.0982 
   29300    336.12874   -134630.33   -134592.83   -134630.33            0   -1807.4349    17.843116    22.871394    22.308011    9103.8309 
   29400    342.35865   -134630.42   -134592.23   -134630.42            0   -201.25458    17.823767    22.877131    22.279722    9084.7048 
   29500    350.52434   -134631.28   -134592.17   -134631.28            0    897.44906    17.810192    22.891784    22.237873    9066.5378 
   29600    342.72399   -134630.36   -134592.13   -134630.36            0   -1290.9482    17.801144     22.92507    22.181938    9052.2821 
   29700    347.92025   -134630.15   -134591.34   -134630.15            0    2307.1411    17.799766     22.97393    22.120524    9045.7587 
   29800    332.09663    -134628.4   -134591.35    -134628.4            0    93.376441    17.809262    23.033575    22.061619    9049.9183 
   29900    356.58644   -134629.45   -134589.68   -134629.45            0    -1033.942     17.82604    23.103903     21.99649    9059.2786 
   30000    344.81058    -134628.5   -134590.04    -134628.5            0   -788.14116    17.844683     23.17239    21.930705    9068.4334 
   30100     355.0847      -134630   -134590.39      -134630            0    2045.3388     17.86237    23.235669    21.881994    9081.9927 
   30200    345.90908   -134629.01   -134590.42   -134629.01            0   -1599.2111    17.882618    23.299078    21.839628    9099.4486 
   30300    345.59364   -134628.77   -134590.22   -134628.77            0    242.38818    17.902348    23.356231    21.804321    9117.0706 
   30400    334.40082    -134627.6    -134590.3    -134627.6            0   -2480.7544    17.911789    23.402448    21.778182    9128.9718 
   30500      339.165   -134629.92   -134592.08   -134629.92            0   -841.52311    17.912442    23.436626    21.766777    9137.8499 
   30600    336.97388   -134630.57   -134592.98   -134630.57            0    862.43605    17.908899     23.44694    21.770838    9141.7681 
   30700    334.29536   -134629.77   -134592.48   -134629.77            0   -120.76147    17.898145    23.441721    21.786536    9140.8318 
   30800    319.63773   -134630.05    -134594.4   -134630.05            0   -339.62088     17.88049     23.41969     21.80721    9131.8899 
   30900    339.04296   -134630.68   -134592.86   -134630.68            0   -952.20948    17.853807     23.38049    21.824692    9110.2978 
   31000    343.61057   -134630.37   -134592.03   -134630.37            0    563.24744    17.830082    23.329112    21.837004    9083.3198 
   31100    342.20656   -134629.94   -134591.77   -134629.94            0    -971.7651    17.806535    23.283051    21.851105    9059.2599 
   31200    354.81867   -134631.87   -134592.29   -134631.87            0    648.61412    17.788174    23.236283    21.871558    9040.1937 
   31300    341.15374   -134630.18   -134592.13   -134630.18            0    1529.5224    17.778197    23.192403    21.901418    9030.3732 
   31400    330.63132   -134630.35   -134593.47   -134630.35            0   -273.15246    17.772476    23.167014     21.93486    9031.3541 
   31500    334.18872    -134631.1   -134593.82    -134631.1            0   -620.06145    17.773619    23.137049    21.971182     9035.189 
   31600    327.42745   -134630.16   -134593.63   -134630.16            0    1302.6741    17.779489    23.107941    21.993992    9036.1741 
   31700    333.58633   -134631.76   -134594.54   -134631.76            0   -673.29772    17.779847    23.084268    22.012627    9034.7472 
   31800    326.16363   -134631.92   -134595.53   -134631.92            0    1636.4122    17.781769    23.059065    22.033618    9034.4661 
   31900     337.4194   -134633.97   -134596.33   -134633.97            0   -659.05082    17.785735    23.039543    22.047854     9034.664 
   32000    333.61181   -134632.05   -134594.84   -134632.05            0    359.15697    17.792286    23.019224    22.059564    9034.8169 
   32100    324.16608   -134630.37   -134594.21   -134630.37            0   -97.298259    17.805756    23.000604    22.062103    9035.3832 
   32200     335.5488   -134630.56   -134593.13   -134630.56            0    623.14941    17.816368    22.992816    22.053759    9034.2884 
   32300    337.63292   -134631.79   -134594.13   -134631.79            0    686.56635    17.836945    22.992997    22.031596    9035.7042 
   32400     335.6639   -134631.31   -134593.86   -134631.31            0   -1050.1127    17.857655    23.017091    22.000877    9043.0488 
   32500    337.41205   -134632.28   -134594.64   -134632.28            0   -1578.8997    17.882295    23.039189    21.971566    9052.1441 
   32600    328.92656   -134630.59    -134593.9   -134630.59            0   -1007.8102     17.90172    23.066177    21.941642    9060.2363 
   32700    334.83224   -134631.02   -134593.67   -134631.02            0   -950.14424    17.917447    23.106938    21.904888    9069.0035 
   32800    331.33427    -134630.7   -134593.74    -134630.7            0    1622.7971    17.931222     23.15079    21.866955    9077.4534 
   32900    334.01774   -134631.88   -134594.62   -134631.88            0   -237.20152    17.941317    23.197403    21.834464    9087.3284 
   33000    326.61329   -134630.65   -134594.21   -134630.65            0    152.83331    17.948761    23.245606    21.793411    9092.8609 
   33100    329.89462   -134630.05   -134593.25   -134630.05            0    1321.6318    17.948165    23.284869    21.752634    9090.8756 
   33200    333.16526   -134631.83   -134594.66   -134631.83            0    547.26903     17.93171    23.327863    21.717146    9084.4666 
   33300    330.73857   -134632.31   -134595.42   -134632.31            0    -1222.172    17.915048    23.364326    21.683154    9075.9834 
   33400    330.28758   -134632.11   -134595.27   -134632.11            0   -22.461426    17.882688     23.40143    21.656837    9062.9638 
   33500    327.06608   -134631.01   -134594.53   -134631.01            0   -115.95549    17.844081    23.416972    21.653241    9047.9006 
   33600    329.09774   -134634.02   -134597.31   -134634.02            0   -322.52445    17.804382    23.430186    21.661917    9036.4848 
   33700    323.36706   -134633.29   -134597.22   -134633.29            0   -1322.3473    17.764218    23.423527    21.692377    9026.2123 
   33800    313.45028   -134631.79   -134596.82   -134631.79            0    930.85674     17.72739    23.402626    21.740129    9019.2727 
   33900    317.70527   -134633.05   -134597.61   -134633.05            0    1795.4626    17.696991    23.373403    21.797185    9016.1635 
   34000    334.80501   -134634.49   -134597.14   -134634.49            0   -701.43706    17.676606     23.33703    21.873012    9023.0435 
   34100    304.00051   -134631.58   -134597.67   -134631.58            0    2950.3524    17.663525    23.301498    21.954982    9036.3768 
   34200    324.61804   -134634.25   -134598.03   -134634.25            0    213.42672    17.661586    23.258053     22.04569    9055.7985 
   34300    311.44158    -134632.6   -134597.86    -134632.6            0   -3200.3936     17.67386    23.204873    22.120059    9071.8711 
   34400    316.92032   -134632.41   -134597.06   -134632.41            0    912.96477    17.687101    23.153117     22.18453    9084.8209 
   34500    326.82932   -134633.89   -134597.43   -134633.89            0   -2794.6539    17.706965    23.097914    22.219913    9087.8098 
   34600    305.40066   -134633.45   -134599.38   -134633.45            0    1099.0443    17.736892    23.035699    22.229047    9082.3819 
   34700    318.10813    -134634.4   -134598.91    -134634.4            0   -1119.0321    17.761381    22.984318    22.218129    9070.1786 
   34800    328.06114   -134634.65   -134598.06   -134634.65            0    1890.7637    17.790494    22.942055    22.181422    9053.3585 
   34900    306.73882   -134632.21   -134597.99   -134632.21            0    1293.5622    17.824542    22.910629    22.132796    9038.4024 
   35000    316.89782   -134633.68   -134598.33   -134633.68            0   -286.79103    17.865441    22.904291    22.068454    9030.3065 
   35100    322.54284   -134632.72   -134596.74   -134632.72            0     766.1578     17.90571    22.910226    22.011128    9029.4903 
   35200    326.57008   -134632.47   -134596.04   -134632.47            0    2829.1569     17.95231     22.94425    21.947416    9040.1908 
   35300    332.62391   -134633.43   -134596.32   -134633.43            0   -3282.0628    17.999646    22.986531    21.895481    9059.2427 
   35400    303.65659   -134631.47   -134597.59   -134631.47            0    1048.6851    18.037417    23.036557    21.842837     9076.135 
   35500    329.53845   -134633.61   -134596.85   -134633.61            0    -845.6031     18.06207    23.087671     21.79537    9088.9118 
   35600    323.24259    -134632.8   -134596.74    -134632.8            0    244.15075    18.071493    23.131666    21.755611    9094.3623 
   35700    336.40755   -134631.49   -134593.96   -134631.49            0     91.40134    18.067619    23.173771    21.731665    9098.9365 
   35800    325.71665   -134631.16   -134594.83   -134631.16            0     186.2657    18.052899    23.214554    21.728442    9106.1728 
   35900    316.05697    -134631.2   -134595.95    -134631.2            0   -961.66746    18.029701    23.239527    21.734113     9106.631 
   36000    332.60465   -134632.65   -134595.55   -134632.65            0   -423.12108    17.994823     23.24781    21.742932     9095.943 
   36100    322.27224    -134632.3   -134596.35    -134632.3            0    1465.7023    17.946743    23.256946    21.746942    9076.8783 
   36200    313.81898   -134632.24   -134597.23   -134632.24            0   -1281.3109    17.894879     23.24959    21.762279    9054.1653 
   36300    329.15811   -134633.48   -134596.76   -134633.48            0     1024.718    17.841628    23.252347    21.783585    9037.1323 
   36400    323.19108   -134632.66    -134596.6   -134632.66            0    1770.4204    17.794973     23.26075    21.815712    9030.0558 
   36500    326.10689   -134631.59   -134595.21   -134631.59            0    678.14883    17.756894    23.272246    21.856387    9031.9947 
   36600    334.80936   -134631.81   -134594.46   -134631.81            0    1284.4135    17.723606    23.286087    21.911243    9043.0642 
   36700     328.9246   -134631.39    -134594.7   -134631.39            0    -2427.402    17.710651    23.289984    21.966283    9060.6698 
   36800    334.21777   -134632.17   -134594.89   -134632.17            0    2616.2508    17.698531    23.291129    22.027833     9080.286 
   36900     328.7893   -134632.96   -134596.29   -134632.96            0    1431.5939    17.697534    23.284167    22.091704      9103.38 
   37000    327.59691   -134631.69   -134595.15   -134631.69            0    -3509.822     17.71166    23.262112    22.145322    9124.1077 
   37100    330.12818   -134631.46   -134594.63   -134631.46            0   -415.54754    17.718169    23.236655    22.188645    9135.3086 
   37200    322.36539   -134631.56    -134595.6   -134631.56            0   -1390.5925    17.728148    23.194664    22.214457    9134.5498 
   37300    330.91751   -134632.03   -134595.12   -134632.03            0    1287.1305    17.743861    23.146731    22.206619    9120.5332 
   37400    327.75285   -134631.85   -134595.29   -134631.85            0   -2430.3019    17.755141    23.103337    22.185813    9100.6871 
   37500     342.7773   -134633.61   -134595.37   -134633.61            0   -204.22818    17.778191    23.056943    22.146396    9078.0456 
   37600    323.64709   -134631.08   -134594.98   -134631.08            0    291.65403    17.802938    23.018801    22.093124     9053.813 
   37700    329.97402   -134630.77   -134593.96   -134630.77            0    199.90461    17.830253    22.993274    22.030637    9032.0305 
   37800    344.30119   -134631.64   -134593.23   -134631.64            0    2907.2037    17.870922    22.978349    21.969588    9021.6854 
   37900    342.40876   -134631.99    -134593.8   -134631.99            0    1457.8851    17.919729    22.990961    21.918507    9030.2453 
   38000     335.9887    -134631.6   -134594.12    -134631.6            0    4.8118104    17.977651    23.029156    21.876364     9057.036 
   38100    338.55463   -134631.88   -134594.11   -134631.88            0   -2162.7048    18.037123    23.082081    21.843109    9094.0359 
   38200    319.91829   -134629.87   -134594.18   -134629.87            0    741.39349    18.085967    23.136733    21.818916    9130.1297 
   38300    337.06871   -134631.82   -134594.22   -134631.82            0   -279.27896     18.12216      23.1927    21.796957    9161.3007 
   38400    341.43887   -134632.14   -134594.05   -134632.14            0   -1355.3663    18.142078    23.237078    21.777683    9180.7933 
   38500    340.67072   -134631.95   -134593.95   -134631.95            0   -653.42404    18.142213     23.27335    21.767519    9190.9016 
   38600    335.51495   -134631.18   -134593.75   -134631.18            0   -1398.8375    18.122553    23.297447    21.758586    9186.6754 
   38700    326.12908   -134630.19   -134593.81   -134630.19            0    714.15664    18.082675    23.303728    21.762262     9170.481 
   38800    319.56291   -134630.32   -134594.68   -134630.32            0   -2480.8822    18.027634     23.30663    21.772308    9147.9269 
   38900     322.1445   -134630.98   -134595.04   -134630.98            0    2289.3599    17.962615     23.30501    21.785517    9119.8295 
   39000    334.58692   -134631.88   -134594.56   -134631.88            0   -1867.9094    17.889752    23.292832    21.814523    9090.1767 
   39100    320.38319   -134630.51   -134594.77   -134630.51            0    876.76267    17.811326    23.286737    21.846158    9061.0799 
   39200    329.85915   -134632.44   -134595.64   -134632.44            0    1393.8263    17.738788    23.275483     21.89447    9039.7639 
   39300    328.25683   -134630.94   -134594.32   -134630.94            0    1911.0133    17.677311    23.272691    21.946658    9028.8242 
   39400    337.67294   -134630.85   -134593.18   -134630.85            0    703.99843    17.633648    23.278772    22.006815    9033.5702 
   39500    327.94046   -134631.03   -134594.45   -134631.03            0     3465.101    17.618069    23.283808    22.083502    9059.0001 
   39600     323.0667   -134629.63   -134593.59   -134629.63            0    -2862.725    17.613718    23.295175    22.172233    9097.5918 
   39700    330.39439   -134632.02   -134595.16   -134632.02            0     2564.168    17.619089    23.311494     22.25422    9140.4152 
   39800    330.77644   -134631.92   -134595.02   -134631.92            0   -2181.6593    17.628354    23.313185    22.325091    9175.0115 
   39900    331.16148   -134632.03   -134595.09   -134632.03            0    677.00811    17.645781    23.309867    22.362334    9198.0934 
   40000    320.50418   -134630.69   -134594.94   -134630.69            0    -2636.585     17.66881     23.29556    22.373662    9209.1072 
   40100    348.56812   -134633.04   -134594.16   -134633.04            0   -63.653219    17.690575    23.279883    22.350533    9204.7213 
   40200    341.17741   -134630.83   -134592.77   -134630.83            0   -1498.4951    17.718466    23.246524    22.291251    9181.6043 
   40300    336.76184   -134629.82   -134592.26   -134629.82            0    1829.3984    17.754443    23.199984    22.198067     9143.446 
   40400    329.93755   -134630.67   -134593.87   -134630.67            0    -1870.454     17.79485    23.154748    22.086595     9100.456 
   40500    336.46209    -134633.2   -134595.67    -134633.2            0    591.35113    17.838772    23.109047    21.978711    9060.4385 
   40600    325.51284   -134631.32   -134595.01   -134631.32            0    1932.5461    17.883889    23.079571    21.873772    9028.4537 
   40700    327.32394   -134631.37   -134594.86   -134631.37            0   -625.50749    17.933747    23.066525    21.795308    9016.0484 
   40800    328.86416   -134631.63   -134594.94   -134631.63            0    2355.1817    17.991184    23.075754    21.744326     9027.377 
   40900      347.835   -134632.44   -134593.64   -134632.44            0   -2230.0437    18.043188    23.100585    21.722794    9054.2385 
   41000    328.07922   -134631.28   -134594.68   -134631.28            0    759.45488    18.086351    23.132586    21.716356    9085.7777 
   41100    327.80845   -134633.14   -134596.57   -134633.14            0   -926.95221    18.110628    23.160649     21.73031    9114.8634 
   41200    316.60415   -134630.93   -134595.62   -134630.93            0    686.86774    18.119554    23.179631     21.74809    9134.2972 
   41300    318.78224   -134631.96    -134596.4   -134631.96            0   -654.12023    18.106398    23.187995    21.788668     9147.996 
   41400    328.80526   -134632.55   -134595.87   -134632.55            0   -2133.3699    18.081269    23.201141    21.821369    9154.1969 
   41500    342.69389    -134632.6   -134594.37    -134632.6            0     1691.502    18.037285    23.201145    21.863608    9149.6067 
   41600    339.75434   -134632.26   -134594.36   -134632.26            0    -3346.216    17.986767    23.196114    21.899223    9136.8617 
   41700    344.10171   -134632.17   -134593.78   -134632.17            0     117.1224    17.928712    23.186904    21.937167    9119.5286 
   41800    337.55849   -134631.03   -134593.37   -134631.03            0   -2892.1342    17.864624    23.181955    21.970193    9098.6678 
   41900    331.35911   -134631.35   -134594.38   -134631.35            0    2208.3287    17.813222     23.17371    21.992303    9078.3882 
   42000     338.6612   -134632.19   -134594.42   -134632.19            0    -1997.379    17.767401    23.173807    22.027982    9069.7642 
   42100    340.15913   -134632.27   -134594.32   -134632.27            0    1335.4974    17.745229    23.183079    22.050456    9071.3157 
   42200    321.12868   -134631.28   -134595.46   -134631.28            0   -837.01503    17.732521    23.197695    22.075053    9080.6529 
   42300    334.81068    -134630.4   -134593.05    -134630.4            0    1038.2961    17.728833    23.225631    22.088123    9095.0786 
   42400    328.76666   -134629.84   -134593.17   -134629.84            0    1112.6631    17.729446    23.245768    22.098223    9107.4421 
   42500    336.57946    -134631.3   -134593.76    -134631.3            0    649.57225    17.730741    23.265769    22.098879    9116.2146 
   42600    326.07852   -134630.82   -134594.45   -134630.82            0    1047.1111    17.740979    23.279657    22.089297    9122.9661 
   42700    324.57128   -134630.78   -134594.57   -134630.78            0   -911.23825    17.747661    23.293743    22.077417    9127.0129 
   42800    339.93525   -134632.06   -134594.14   -134632.06            0    -258.5541    17.768074    23.303182    22.047761    9128.9341 
   42900    329.31672   -134630.79   -134594.05   -134630.79            0   -278.64493    17.790655    23.299405    22.021161    9128.0285 
   43000    337.95532   -134631.41   -134593.71   -134631.41            0   -1796.3994    17.816404    23.296414    21.976777    9121.6439 
   43100    330.48743   -134631.13   -134594.26   -134631.13            0    2727.2144    17.844666    23.284204    21.927214    9110.7319 
   43200    322.38453   -134631.54   -134595.58   -134631.54            0    558.26251    17.863829    23.272529    21.884071    9098.0063 
   43300    326.64323   -134631.35   -134594.91   -134631.35            0    751.20214    17.883197    23.260875    21.838428    9084.3232 
   43400    333.38029   -134631.76   -134594.58   -134631.76            0   -874.91666     17.90681    23.244809    21.794151    9071.6058 
   43500    337.54515   -134632.79   -134595.14   -134632.79            0    1483.9386    17.929493    23.225544    21.767751    9064.5751 
   43600    322.16421   -134630.51   -134594.57   -134630.51            0   -974.32054    17.949396    23.208563    21.745267    9058.6368 
   43700    335.31286   -134631.66   -134594.26   -134631.66            0    497.35571     17.97032    23.188208    21.731113     9055.344 
   43800    328.64599   -134631.57   -134594.91   -134631.57            0    688.08103    17.987513    23.172309    21.734037    9059.0115 
   43900    310.13635   -134631.35   -134596.76   -134631.35            0    -567.6659    18.008428    23.160612    21.754178    9073.3676 
   44000    329.48388   -134631.76      -134595   -134631.76            0    345.38473    18.018811    23.153173    21.783306    9087.8352 
   44100    334.22785   -134632.43   -134595.14   -134632.43            0    12.588323    18.010783    23.135965    21.833272    9097.8556 
   44200    334.62398   -134632.52   -134595.19   -134632.52            0    2500.0879    17.994518    23.119383    21.892139     9107.615 
   44300    319.51647   -134631.54    -134595.9   -134631.54            0    -4705.185    17.969827    23.110749    21.957078    9118.6904 
   44400     333.6404   -134632.66   -134595.44   -134632.66            0    147.88122    17.933287    23.099415    22.021652     9122.435 
   44500    332.55783   -134631.68   -134594.58   -134631.68            0    1522.6573    17.880496    23.084557    22.074633    9111.5991 
   44600    342.06436   -134631.66    -134593.5   -134631.66            0   -269.71891    17.810059     23.07073    22.124937    9090.9389 
   44700    335.00649   -134630.92   -134593.55   -134630.92            0   -1008.2917    17.741286    23.054916    22.164517    9065.8161 
   44800    324.00772   -134630.36   -134594.22   -134630.36            0    686.96406    17.675248    23.045939    22.195526    9041.1852 
   44900    333.55054   -134632.86   -134595.66   -134632.86            0    654.45423    17.617304    23.051954    22.219736    9023.7297 
   45000    318.72268   -134632.92   -134597.36   -134632.92            0   -366.13863    17.566618    23.070677    22.233857    9010.7988 
   45100    334.55883   -134633.82    -134596.5   -134633.82            0     518.9758    17.526369    23.099637    22.242567    9004.9646 
   45200    319.37797   -134632.51   -134596.88   -134632.51            0    514.38727     17.50955    23.139136    22.233161    9007.8948 
   45300    316.49265   -134632.26   -134596.96   -134632.26            0   -816.28149    17.513394    23.187639    22.206674    9018.0033 
   45400    326.52793   -134632.58   -134596.15   -134632.58            0    1905.2732    17.539314    23.250915    22.158238    9036.2424 
   45500    325.52142   -134633.18   -134596.87   -134633.18            0    967.31978    17.586232    23.312852    22.097562    9059.6739 
   45600    325.00232   -134632.68   -134596.43   -134632.68            0    -385.1591    17.644812    23.371193    22.019626      9080.46 
   45700    319.95768   -134632.66   -134596.97   -134632.66            0    1703.7636    17.714903    23.411495    21.934371    9096.8932 
   45800    323.67736   -134633.56   -134597.45   -134633.56            0   -1278.9876    17.784133    23.430189     21.84848     9103.947 
   45900    308.58583   -134631.36   -134596.93   -134631.36            0   -1388.5569    17.847513    23.433906    21.761105    9101.2985 
   46000    320.91893   -134631.37   -134595.57   -134631.37            0    1441.6803    17.911935    23.412709    21.677219    9090.7091 
   46100    323.75113   -134631.73   -134595.61   -134631.73            0    419.70369    17.955041    23.376001    21.613626    9071.6075 
   46200    335.86398   -134631.34   -134593.87   -134631.34            0   -943.62408    17.989643    23.330967    21.558384    9048.3939 
   46300    336.20193   -134631.41   -134593.91   -134631.41            0    1796.8523    18.015398    23.274727     21.53473    9029.5872 
   46400    325.36552   -134631.37   -134595.07   -134631.37            0    258.60684    18.030729    23.216468    21.531088    9013.1255 
   46500    334.52702   -134632.67   -134595.35   -134632.67            0    1161.8591    18.031562    23.169261    21.555533    9005.4268 
   46600    331.42745   -134631.15   -134594.18   -134631.15            0    1597.9873    18.032796    23.119485     21.61083    9009.7487 
   46700    318.79815   -134630.43   -134594.87   -134630.43            0    1238.2393    18.028938    23.082529    21.687462    9025.3128 
   46800    336.89768   -134631.46   -134593.88   -134631.46            0    844.72512    18.020537    23.059804     21.77568    9048.8849 
   46900    329.08239   -134631.03   -134594.32   -134631.03            0   -1194.4562    18.009964    23.045622    21.870912    9077.5404 
   47000    332.22347   -134632.37   -134595.31   -134632.37            0    1266.4499    17.995904    23.039087    21.959037    9104.4184 
   47100    323.02387   -134631.54   -134595.51   -134631.54            0   -2246.0752    17.969154    23.039515    22.032813    9121.5972 
   47200    335.17824    -134631.7   -134594.31    -134631.7            0    450.17994    17.930647    23.040897    22.087897    9125.3538 
   47300    326.53824    -134629.9   -134593.48    -134629.9            0     124.9595    17.893147    23.034112    22.126965    9119.6893 
   47400    341.31765   -134631.79   -134593.72   -134631.79            0   -487.58684    17.852866    23.043486    22.147782    9111.4261 
   47500    328.84875   -134630.85   -134594.16   -134630.85            0    1726.7818    17.818264    23.053881    22.150475    9098.9754 
   47600     334.6601   -134630.05   -134592.72   -134630.05            0    729.40922    17.783215    23.066689    22.144931    9083.8483 
   47700    328.01181   -134629.94   -134593.35   -134629.94            0    2080.1376    17.757531    23.089273     22.13179    9074.2214 
   47800    326.02552   -134630.06    -134593.7   -134630.06            0   -2479.5407     17.73951    23.122984    22.102384    9066.1859 
   47900    337.29868    -134632.6   -134594.97    -134632.6            0   -602.39417    17.725675    23.152588    22.074121    9059.1145 
   48000    340.88716   -134631.67   -134593.65   -134631.67            0    3516.4317    17.722611    23.188155    22.041584    9058.0911 
   48100    340.57182   -134633.72   -134595.73   -134633.72            0   -3575.4445    17.724789    23.231632    22.018165    9066.5471 
   48200    339.82075   -134633.01    -134595.1   -134633.01            0    3500.8634    17.737619    23.282746     21.98851    9080.8255 
   48300    327.03591   -134631.56   -134595.08   -134631.56            0   -1231.4964    17.760147    23.331936    21.961177    9100.2419 
   48400    321.26793   -134631.23   -134595.39   -134631.23            0   -1522.6654    17.789281     23.37802    21.924967    9118.1154 
   48500    327.89692   -134631.02   -134594.44   -134631.02            0     194.8657    17.817359    23.417084    21.883447    9130.4437 
   48600    329.51646   -134631.87   -134595.11   -134631.87            0   -2944.0753    17.848889    23.434935    21.838961    9134.9658 
   48700    324.28341   -134630.25   -134594.08   -134630.25            0    1381.5696     17.87175    23.435462    21.791243    9126.8855 
   48800    345.09297   -134631.38   -134592.89   -134631.38            0   -762.13563    17.886286    23.423132     21.75349    9113.6865 
   48900    331.00026    -134630.7   -134593.77    -134630.7            0    2430.8225    17.906643    23.397073    21.726582    9102.6345 
   49000    345.62251   -134631.42   -134592.87   -134631.42            0   -515.40822    17.921808    23.359693    21.726228    9095.6408 
   49100     339.5505   -134630.32   -134592.44   -134630.32            0    1668.4491    17.944209    23.325307    21.723186    9092.3301 
   49200    336.98165   -134629.42   -134591.83   -134629.42            0   -1223.6036    17.961982    23.278029    21.741198    9090.4196 
   49300    356.19651   -134628.99   -134589.25   -134628.99            0    1079.1334    17.978509    23.229693      21.7674    9090.8332 
   49400    343.64521   -134626.36   -134588.03   -134626.36            0    647.77545     18.00128    23.183566     21.80096    9098.2785 
   49500    351.12932   -134628.27    -134589.1   -134628.27            0     23.74676    18.034227    23.139321    21.848987    9117.5772 
   49600    345.52317   -134628.96   -134590.42   -134628.96            0   -475.88151    18.053606    23.100528    21.915178    9139.6775 
   49700    336.38323   -134627.56   -134590.04   -134627.56            0   -3156.5038    18.062458    23.048814    21.977784    9149.7526 
   49800    348.70757   -134629.55   -134590.65   -134629.55            0    1504.3129    18.053874    22.991702    22.037627    9147.5831 
   49900     358.0146   -134630.93   -134590.99   -134630.93            0   -165.29556     18.03439    22.937399    22.085859    9136.0802 
   50000    335.73626    -134629.5   -134592.04    -134629.5            0   -2425.9599     18.00353    22.895962    22.117228    9116.9014 
   50100     322.6055   -134629.94   -134593.96   -134629.94            0    1391.6714     17.96545    22.865667    22.129363    9090.5651 
   50200    324.39245   -134631.27   -134595.08   -134631.27            0   -806.28776    17.921408    22.841308    22.128495    9058.2638 
   50300    323.76687   -134632.19   -134596.07   -134632.19            0    825.13447    17.868333    22.841668    22.113579    9025.4921 
   50400    339.17255   -134631.89   -134594.06   -134631.89            0   -1206.5266    17.821532    22.858186    22.091954    8999.5529 
   50500    320.95736   -134630.45   -134594.65   -134630.45            0    1077.8499    17.771491    22.900999    22.071701    8982.8491 
   50600    322.32955   -134632.36    -134596.4   -134632.36            0    732.75582    17.726713    22.969077    22.041948    8974.7369 
   50700    320.96595    -134632.8   -134596.99    -134632.8            0    1877.8992    17.695766    23.050829    22.010933    8978.3048 
   50800    334.00709   -134633.78   -134596.52   -134633.78            0   -464.34891    17.676382    23.154615    21.981658    8996.8687 
   50900    332.97272   -134631.53   -134594.39   -134631.53            0    1511.8117    17.676661    23.263086    21.955029    9028.2087 
   51000    316.70445   -134629.23    -134593.9   -134629.23            0   -765.32926    17.689873    23.370004    21.930197    9066.2154 
   51100    346.00361   -134631.47   -134592.87   -134631.47            0    271.14914     17.70258    23.462241    21.903207    9097.3263 
   51200    339.71824   -134630.43   -134592.53   -134630.43            0   -763.03048    17.716188    23.530625    21.876401    9119.6805 
   51300    323.31873   -134630.84   -134594.78   -134630.84            0    739.38063    17.731772    23.584957    21.837233    9132.3982 
   51400    328.05834   -134632.02   -134595.43   -134632.02            0   -2446.2577    17.744003     23.60789    21.801587    9132.6515 
   51500    321.15594   -134631.36   -134595.54   -134631.36            0    803.65654    17.756151    23.601843    21.768334    9122.6277 
   51600    328.39463   -134632.65   -134596.01   -134632.65            0   -279.90096    17.758806    23.574436    21.746355    9104.1947 
   51700     325.0255   -134632.01   -134595.75   -134632.01            0    851.09753    17.766949    23.524329    21.731229    9082.6878 
   51800    317.71043    -134632.8   -134597.36    -134632.8            0   -87.470018    17.779037    23.458385    21.735642    9065.2299 
   51900     321.4329   -134633.37   -134597.51   -134633.37            0    276.26312    17.792068    23.384098    21.749521    9048.9194 
   52000    314.28037   -134632.27   -134597.21   -134632.27            0   -392.20911       17.814    23.300268    21.765977    9034.4255 
   52100    323.02328   -134631.45   -134595.42   -134631.45            0    3843.9195    17.834207    23.217431    21.791554    9023.1084 
   52200    347.57187   -134633.05   -134594.27   -134633.05            0    382.61695    17.858136    23.142664    21.837748    9025.2103 
   52300    330.80467   -134631.44   -134594.54   -134631.44            0   -574.24138      17.8925    23.082343    21.894925    9042.6221 
   52400    337.39969   -134631.66   -134594.02   -134631.66            0   -1030.2851    17.926807    23.037009    21.953438    9066.3311 
   52500    325.92616   -134629.39   -134593.03   -134629.39            0    1098.8842    17.953802    22.991479    22.006374    9083.8896 
   52600    337.87547   -134630.27   -134592.58   -134630.27            0   -1223.7253    17.971067      22.9518     22.04927    9094.6258 
   52700    338.48136    -134631.1   -134593.35    -134631.1            0    -609.4932    17.980453    22.931761     22.07143    9100.5683 
   52800    349.55082   -134632.62   -134593.63   -134632.62            0     192.2703    17.983557    22.922581    22.084094    9103.7157 
   52900    327.11811   -134631.67   -134595.18   -134631.67            0    1113.5709    17.983027    22.923174    22.080044    9102.0136 
   53000    331.57419    -134632.5   -134595.52    -134632.5            0    60.388662    17.975636    22.932273    22.067379    9096.6633 
   53100    334.91732   -134633.33   -134595.97   -134633.33            0   -500.06581    17.961039    22.952552    22.043231    9087.3591 
   53200    329.10712   -134632.11    -134595.4   -134632.11            0   -3214.9022    17.937973     22.98737    22.006798    9074.4329 
   53300    321.68019   -134630.81   -134594.92   -134630.81            0    1738.9338    17.914285    23.025844     21.96706    9061.2261 
   53400    313.03693   -134630.86   -134595.94   -134630.86            0   -841.97483    17.886742    23.074256    21.924694    9048.8314 
   53500    337.98092   -134632.89   -134595.19   -134632.89            0     2323.208    17.851366    23.124236    21.883937    9033.6719 
   53600    337.03762    -134632.4    -134594.8    -134632.4            0   -724.48627     17.82519    23.183071    21.840488    9025.4213 
   53700    341.52694   -134631.94   -134593.85   -134631.94            0   -466.99227    17.805316     23.24274    21.811581    9026.5992 
   53800     323.7058   -134631.82   -134595.71   -134631.82            0   -120.90747    17.793224    23.304513    21.800814    9039.9784 
[...]
 1986900    335.73482   -134630.86   -134593.41   -134630.86            0   -1728.9198    17.977379    23.114709    21.888922    9095.7641 
 1987000    335.13722   -134631.82   -134594.43   -134631.82            0    2529.4077    17.984349    23.076123    21.935504    9103.4327 
 1987100    337.13343   -134631.54   -134593.93   -134631.54            0   -3335.4601     17.97952    23.048486    21.982452    9109.5437 
 1987200    325.51401   -134631.31      -134595   -134631.31            0    85.449912    17.974744    23.015218    22.039867    9117.7308 
 1987300     327.7241    -134632.4   -134595.84    -134632.4            0   -968.80881    17.963826    22.992196    22.083508    9121.1028 
 1987400    330.55565   -134632.57   -134595.69   -134632.57            0    452.03511     17.94676    22.973253    22.113311    9117.2181 
 1987500    320.08017   -134631.88   -134596.18   -134631.88            0    2742.3635    17.926496    22.957958    22.128352    9107.0502 
 1987600    323.94735   -134631.26   -134595.13   -134631.26            0   -793.48172    17.903559    22.958887      22.1268    9095.1279 
 1987700    341.16717   -134631.27   -134593.21   -134631.27            0    595.91875    17.878747    22.966546    22.127733    9085.9363 
 1987800    342.04512   -134630.75   -134592.59   -134630.75            0    1939.7772    17.857891    22.992927    22.111364    9079.0406 
 1987900    347.78743   -134628.88   -134590.08   -134628.88            0   -2422.8262    17.834495    23.030016    22.094919    9075.0173 
 1988000    364.98427   -134630.68   -134589.96   -134630.68            0    3045.3956    17.819763    23.083442    22.077081    9081.2187 
 1988100    349.19418   -134629.13   -134590.17   -134629.13            0   -1058.8604    17.815287    23.163068     22.05197    9099.8935 
 1988200    355.18541   -134629.58   -134589.96   -134629.58            0    461.50651    17.817073    23.247133    22.030892    9125.1045 
 1988300    348.17372   -134630.21   -134591.37   -134630.21            0    233.74677    17.820801    23.332959     21.99889    9147.4027 
 1988400    341.04496   -134629.31   -134591.26   -134629.31            0   -3553.5584    17.821011    23.416787    21.961962    9164.9646 
 1988500    353.80857   -134630.88   -134591.41   -134630.88            0    1323.2304    17.816191    23.490671    21.921097    9174.2919 
 1988600    342.01421   -134630.14   -134591.99   -134630.14            0   -3397.2061    17.811308    23.551732    21.874952    9176.2613 
 1988700    334.02642   -134630.39   -134593.13   -134630.39            0    2608.1933     17.80178    23.579108    21.838822    9166.8476 
 1988800      336.284   -134631.46   -134593.94   -134631.46            0   -3347.0482    17.790195    23.574604    21.806271    9145.4803 
 1988900    341.98626   -134632.96   -134594.82   -134632.96            0    1918.8359    17.771525    23.554905    21.778469    9116.6103 
 1989000    329.63886   -134631.93   -134595.16   -134631.93            0   -2693.6363    17.761774    23.506469    21.764487    9087.0344 
 1989100    319.83719   -134631.19   -134595.51   -134631.19            0     3658.028    17.754061      23.4548    21.754865    9059.1162 
 1989200    323.34083   -134632.46   -134596.39   -134632.46            0     -671.247      17.7536    23.400282    21.762171    9040.8596 
 1989300    345.45341    -134632.5   -134593.97    -134632.5            0    2417.2674    17.770768     23.34432    21.786139    9037.9032 
 1989400    318.12659   -134630.01   -134594.53   -134630.01            0    2862.4687     17.80212    23.307071    21.819761    9053.3519 
 1989500    328.87508   -134632.08   -134595.39   -134632.08            0   -173.74974    17.842079    23.268296    21.882708    9084.7111 
 1989600    333.35542   -134631.51   -134594.32   -134631.51            0    3.5798141    17.875073     23.23486    21.948729    9115.8519 
 1989700    323.49678   -134630.44   -134594.35   -134630.44            0   -1011.4991    17.899382    23.183302    22.024026    9139.2394 
 1989800    328.21162   -134630.49   -134593.88   -134630.49            0   -190.50715     17.92271    23.132043    22.080478     9154.321 
 1989900    324.88464   -134631.51   -134595.27   -134631.51            0   -94.528497    17.928289    23.090107    22.130744    9161.3781 
 1990000    332.34698   -134632.11   -134595.04   -134632.11            0   -931.68341    17.939081    23.033185     22.16102    9156.8044 
 1990100    323.70944   -134631.55   -134595.44   -134631.55            0     889.4422    17.937137    22.985481    22.168475    9139.9229 
 1990200    327.81814    -134630.8   -134594.23    -134630.8            0   -487.67904    17.922941    22.943349      22.1604    9112.6287 
 1990300    336.98226   -134633.17   -134595.58   -134633.17            0    1445.8103    17.908479     22.90894    22.140898     9083.619 
 1990400    331.97649   -134632.57   -134595.53   -134632.57            0   -161.04311    17.893041     22.89077    22.104992    9053.8838 
 1990500    324.35632   -134631.76   -134595.58   -134631.76            0    2320.0168    17.874982    22.893506    22.065892    9029.8264 
 1990600    310.05583   -134631.41   -134596.83   -134631.41            0    3498.0413    17.865273    22.918298    22.032504     9021.025 
 1990700     318.6897   -134632.88   -134597.33   -134632.88            0     1617.752    17.866654    22.964811    22.001641    9027.3688 
 1990800     308.5144   -134632.11   -134597.69   -134632.11            0   -686.15485    17.864535    23.023145    21.978428    9039.6788 
 1990900    313.41533   -134633.78   -134598.82   -134633.78            0   -64.771419    17.867341    23.084247    21.948687    9052.8265 
 1991000    311.80282   -134633.97   -134599.19   -134633.97            0     825.2584    17.866225    23.149703    21.920869     9066.423 
 1991100    313.64556   -134633.56   -134598.57   -134633.56            0    1089.2161    17.864132    23.205887    21.898054     9077.905 
 1991200     320.3405   -134634.14   -134598.41   -134634.14            0    36.546696    17.856139    23.261713    21.885063    9090.2754 
 1991300    337.65784   -134633.41   -134595.74   -134633.41            0   -529.92654    17.852093    23.311918    21.879762    9105.6244 
 1991400    330.26989   -134632.07   -134595.22   -134632.07            0    1394.6684    17.857849    23.347976    21.885437    9125.0156 
 1991500    322.97959   -134630.41   -134594.38   -134630.41            0    -2086.179    17.855575    23.384477    21.890075    9140.0539 
 1991600    327.73548    -134630.7   -134594.14    -134630.7            0   -742.06386    17.850858    23.404303    21.895936    9147.8351 
 1991700    324.28035   -134630.04   -134593.87   -134630.04            0    1529.1506    17.841187    23.408275    21.892899    9143.1628 
 1991800    329.81094   -134632.41   -134595.62   -134632.41            0   -739.90836    17.818126     23.40153    21.896521    9130.2236 
 1991900    323.65614   -134632.37   -134596.27   -134632.37            0    -504.5064    17.792193    23.381718    21.901106    9111.1236 
 1992000    313.98087   -134631.13   -134596.11   -134631.13            0   -101.42064    17.771742    23.356036    21.901392    9090.7743 
 1992100    342.97706   -134632.24   -134593.98   -134632.24            0   -568.92493    17.754082    23.317028    21.911125    9070.6017 
 1992200    322.55333   -134630.89   -134594.91   -134630.89            0    3297.7987    17.742728    23.274092    21.915274    9049.8221 
 1992300    321.49062   -134630.73   -134594.86   -134630.73            0   -278.85562    17.733594    23.226712    21.933592    9034.2951 
 1992400    328.42324    -134632.6   -134595.96    -134632.6            0    2365.7081    17.731326    23.182385    21.958146    9025.9932 
 1992500    324.96041   -134631.82   -134595.57   -134631.82            0   -419.83045    17.740512    23.132056    21.989919    9024.1024 
 1992600    338.19121   -134634.71   -134596.98   -134634.71            0     -1386.93    17.762619    23.077686    22.024698    9028.3675 
 1992700    333.74773   -134633.81   -134596.58   -134633.81            0   -83.126163    17.788266    23.029812    22.055319    9035.1908 
 1992800    323.26235    -134631.1   -134595.04    -134631.1            0   -148.99594    17.817449    22.989177    22.081292    9044.6846 
 1992900    328.91575   -134632.32   -134595.63   -134632.32            0   -811.53636    17.852284    22.952606    22.108721    9059.1908 
 1993000     324.2377   -134631.97    -134595.8   -134631.97            0   -426.08574    17.887163    22.927224    22.126594    9074.1823 
 1993100    335.77445   -134632.57   -134595.12   -134632.57            0    3214.8285    17.915501    22.913322    22.120503    9080.5474 
 1993200    318.98302   -134630.56   -134594.97   -134630.56            0   -3821.4805    17.938266    22.895059    22.087247    9071.1808 
 1993300    331.88448   -134633.45   -134596.42   -134633.45            0   -201.28181     17.95108    22.879342    22.034123    9049.6107 
 1993400    336.01668   -134633.24   -134595.76   -134633.24            0    936.29904    17.953894    22.873651    21.976443    9025.0902 
 1993500    332.14502    -134632.5   -134595.44    -134632.5            0     1187.612    17.956031    22.876458    21.923214    9005.4068 
 1993600    328.15646   -134631.23   -134594.62   -134631.23            0   -537.50968    17.961873    22.899469    21.866952    8994.2565 
 1993700    332.15797   -134630.91   -134593.86   -134630.91            0    2745.3731    17.958281    22.933291    21.839513    8994.4396 
 1993800    332.65368   -134631.25   -134594.14   -134631.25            0   -1654.1431    17.952851    22.982886    21.813112    9000.2713 
 1993900      338.051   -134632.46   -134594.75   -134632.46            0   -1729.8791     17.94292     23.03366    21.800372    9009.9002 
 1994000    320.66133   -134631.35   -134595.58   -134631.35            0    2629.3983    17.926907     23.09532    21.796399    9024.3119 
 1994100    328.32097   -134632.85   -134596.23   -134632.85            0   -2089.2385    17.902027    23.164386    21.796948    9038.9651 
 1994200    326.07244   -134632.68   -134596.31   -134632.68            0    3096.4797    17.877324    23.231544    21.793604    9051.2723 
 1994300     336.2402   -134634.82   -134597.31   -134634.82            0   -2111.4705    17.837615    23.298684    21.797985    9059.0892 
 1994400    317.28894   -134631.49    -134596.1   -134631.49            0   -902.51779    17.793798    23.354082    21.802551    9060.2205 
 1994500    315.92169   -134631.54    -134596.3   -134631.54            0   -1644.4904    17.741735     23.39675    21.821101    9057.9159 
 1994600    315.64344   -134633.34   -134598.13   -134633.34            0    301.64161     17.68662    23.430012    21.839378    9050.1884 
 1994700    313.13179   -134632.07   -134597.14   -134632.07            0    883.34899    17.648088    23.442908    21.855669    9042.1819 
 1994800    314.55387    -134632.2   -134597.11    -134632.2            0   -907.68516    17.614304    23.445656    21.879858    9035.9202 
 1994900    331.58282   -134634.04   -134597.05   -134634.04            0    466.19991    17.592933    23.441628    21.898847    9031.2379 
 1995000    332.79702   -134633.65   -134596.52   -134633.65            0   -120.43148    17.588598    23.416484    21.922568    9029.0974 
 1995100    306.89704   -134631.36   -134597.12   -134631.36            0   -2123.1316    17.593722    23.379867    21.940763     9025.089 
 1995200    314.95659   -134632.79   -134597.66   -134632.79            0   -731.36354    17.604131    23.331181    21.954309    9017.1875 
 1995300    327.52403   -134633.12   -134596.59   -134633.12            0   -1099.2311    17.617875    23.276753    21.957933    9004.6611 
 1995400    328.94526   -134632.62   -134595.92   -134632.62            0    2637.5956    17.646173    23.213725     21.96444    8997.3682 
 1995500    310.53336   -134632.29   -134597.65   -134632.29            0   -1944.6546    17.682468    23.163468    21.968946    8998.2007 
 1995600    321.61157   -134631.91   -134596.04   -134631.91            0    1496.9739    17.723319    23.115129    21.970495     9000.802 
 1995700    335.14139   -134632.52   -134595.13   -134632.52            0   -997.26796    17.769416    23.071141    21.974455    9008.6628 
 1995800     313.9234   -134631.27   -134596.26   -134631.27            0   -1569.7427    17.816953    23.041746    21.965612     9017.624 
 1995900    339.31985   -134632.92   -134595.07   -134632.92            0   -1451.6858    17.853955     23.01061    21.964867     9023.835 
 1996000    333.91221   -134632.86   -134595.61   -134632.86            0     2350.416    17.884328    22.985565    21.965469    9029.5956 
 1996100    329.40938   -134633.44    -134596.7   -134633.44            0   -1360.2571    17.909781    22.970418    21.969868    9038.2975 
 1996200    320.55005   -134630.71   -134594.95   -134630.71            0    419.17671    17.929175    22.967303    21.973469    9048.3408 
 1996300    336.55988   -134631.07   -134593.52   -134631.07            0   -1040.0956     17.94987    22.970016     21.97078    9058.7462 
 1996400    321.84293   -134630.21   -134594.31   -134630.21            0   -2381.7425     17.96038    22.974814    21.965033    9063.5723 
 1996500    333.55355   -134631.61    -134594.4   -134631.61            0    3054.5449    17.957523    22.985514    21.952614    9061.2247 
 1996600    329.08289   -134630.99   -134594.28   -134630.99            0   -3332.7088    17.944686    22.996342    21.942415    9054.8039 
 1996700     339.2054   -134632.11   -134594.27   -134632.11            0    3143.2439    17.932398    23.013591     21.91884    9045.6613 
 1996800    338.53473   -134632.46    -134594.7   -134632.46            0   -2748.3809    17.906906    23.043226    21.894337    9034.3231 
 1996900    311.02169   -134630.81   -134596.11   -134630.81            0    4427.3261    17.880937    23.074408    21.859984    9019.2555 
 1997000    327.12901   -134631.61   -134595.12   -134631.61            0   -447.49819     17.84606    23.115931    21.837832    9008.7237 
 1997100    322.70693   -134633.34   -134597.34   -134633.34            0   -2801.8735    17.816891    23.162264    21.814951     9002.584 
 1997200    316.99198   -134633.29   -134597.93   -134633.29            0     2913.716    17.787897    23.199342    21.806491      8998.83 
 1997300    313.68655   -134633.06   -134598.07   -134633.06            0   -1976.1918    17.764168    23.240025    21.798283     8999.197 
 1997400    334.46468   -134633.32   -134596.01   -134633.32            0    5025.2436    17.743585    23.286459    21.805551    9009.7325 
 1997500     331.1931   -134631.87   -134594.93   -134631.87            0   -2523.4964    17.736256    23.320507    21.823141    9026.4542 
 1997600    321.33767   -134630.95    -134595.1   -134630.95            0    3045.1638    17.730587     23.34472    21.847009    9042.8178 
 1997700    323.55447   -134630.41   -134594.32   -134630.41            0   -1077.4309    17.723219    23.352764    21.879659    9055.6875 
 1997800    334.14971   -134632.21   -134594.93   -134632.21            0    -1415.032    17.727838    23.344174     21.90275    9064.2721 
 1997900    323.19338   -134631.72   -134595.67   -134631.72            0    1317.0265    17.726549    23.328943    21.923326    9066.2083 
 1998000    323.02102   -134632.42   -134596.39   -134632.42            0   -41.342469    17.727071    23.307584    21.946256    9067.6484 
 1998100    334.87859   -134632.22   -134594.87   -134632.22            0    1021.3069    17.734431    23.265847    21.974412    9066.7862 
 1998200    327.05104      -134631   -134594.51      -134631            0   -629.22489    17.742112    23.219395    22.002046    9063.9869 
 1998300    327.06697   -134632.38   -134595.89   -134632.38            0   -535.72718    17.758213    23.162728    22.024131    9059.1565 
 1998400    323.44537    -134632.5   -134596.42    -134632.5            0    -2185.504    17.771293     23.09237    22.041382    9045.3702 
 1998500    309.41832   -134630.37   -134595.86   -134630.37            0    716.55657    17.793056    23.000728    22.045328    9022.1222 
 1998600    319.41745   -134632.94   -134597.31   -134632.94            0    707.66786    17.819569    22.910598    22.042808    8999.1304 
 1998700    327.47065   -134632.96   -134596.43   -134632.96            0     -83.5803    17.858578     22.81845    22.042198    8982.3072 
 1998800    332.19672   -134634.15   -134597.09   -134634.15            0   -50.360784    17.903005    22.754735    22.037442    8977.5721 
 1998900    331.96961   -134634.26   -134597.23   -134634.26            0    1188.9217    17.954447    22.720911    22.028501    8986.3376 
 1999000    317.68688   -134632.51   -134597.08   -134632.51            0   -823.69338    18.010695    22.710194    22.019478    9006.5471 
 1999100    308.58659      -134631   -134596.57      -134631            0    2518.4816    18.055625    22.733862    22.003727    9031.9595 
 1999200    330.37694    -134632.3   -134595.44    -134632.3            0   -2623.2477    18.089263    22.772219    21.973617    9051.6503 
 1999300    324.79866   -134631.57   -134595.34   -134631.57            0   -775.67202    18.106147    22.822168    21.939976    9066.0707 
 1999400    334.52759   -134632.79   -134595.47   -134632.79            0    -654.9209    18.108837    22.884787    21.907016     9078.637 
 1999500    323.25605   -134630.87   -134594.81   -134630.87            0   -2313.3642    18.097559    22.946774    21.873884    9083.7994 
 1999600    323.16749   -134631.07   -134595.02   -134631.07            0   -847.50129    18.065834    23.022227    21.836698    9082.2262 
 1999700    308.40643   -134629.17   -134594.77   -134629.17            0    1175.4691    18.022815    23.089845    21.800818    9072.2794 
 1999800    342.77991    -134631.3   -134593.06    -134631.3            0     990.8481    17.972802    23.155735    21.762216     9056.856 
 1999900    349.53335   -134633.27   -134594.28   -134633.27            0    -515.7686    17.917726    23.228847    21.736002    9046.7007 
 2000000    331.56298    -134631.1   -134594.11    -134631.1            0     2650.437    17.865769    23.299755    21.720614    9041.5977 
Loop time of 6585.62 on 8 procs for 2000000 steps with 864 atoms

Performance: 13.119 ns/day, 1.829 hours/ns, 303.692 timesteps/s
107.3% CPU use with 1 MPI tasks x 8 OpenMP threads

MPI task timing breakdown:
Section |  min time  |  avg time  |  max time  |%varavg| %total
---------------------------------------------------------------
Pair    | 6281.5     | 6281.5     | 6281.5     |   0.0 | 95.38
Neigh   | 172.29     | 172.29     | 172.29     |   0.0 |  2.62
Comm    | 27.914     | 27.914     | 27.914     |   0.0 |  0.42
Output  | 29.564     | 29.564     | 29.564     |   0.0 |  0.45
Modify  | 67.046     | 67.046     | 67.046     |   0.0 |  1.02
Other   |            | 7.269      |            |       |  0.11

Nlocal:        864.000 ave         864 max         864 min
Histogram: 1 0 0 0 0 0 0 0 0 0
Nghost:        4012.00 ave        4012 max        4012 min
Histogram: 1 0 0 0 0 0 0 0 0 0
Neighs:         0.00000 ave           0 max           0 min
Histogram: 1 0 0 0 0 0 0 0 0 0
FullNghs:      174340.0 ave      174340 max      174340 min
Histogram: 1 0 0 0 0 0 0 0 0 0

Total # of neighbors = 174340
Ave neighs/atom = 201.78241
Neighbor list builds = 30767
Dangerous builds = 0

write_data	data.final
System init for write_data ...

write_restart   restart.lmp
System init for write_restart ...
Unloading pair style deepmd
Unloading compute style deeptensor/atom
Unloading fix style dplr
Total wall time: 1:50:09
