ITEM: TIMESTEP
0
ITEM: NUMBER OF ATOMS
864
ITEM: BOX BOUNDS pp pp pp
1.9017091385390970e+00 2.1918290861458821e+01
1.9017091385390970e+00 2.1918290861458821e+01
1.9017091385390970e+00 2.1918290861458821e+01
ITEM: ATOMS id type xs ys zs
818 5 0.139412 0.0317329 0.0369959
715 4 0.117993 0.188575 0.00815786
134 5 0.157904 0.0402318 0.14095
717 5 0.131827 0.142766 0.00121224
133 4 0.135782 0.00556507 0.114905
12 5 0.314909 0.0682489 0.10018
274 4 0.35185 0.0379598 0.102697
276 5 0.34614 0.019541 0.147863
370 4 0.248191 0.145264 0.0781872
371 5 0.212642 0.159826 0.104711
507 5 0.280016 0.183493 0.0751382
126 5 0.408273 0.0941858 0.0863089
719 5 0.477015 0.124658 0.151711
124 4 0.442274 0.129832 0.0800379
785 5 0.472453 0.112025 0.0473534
599 5 0.574754 0.168834 0.0961626
804 5 0.662105 0.130874 0.0375499
802 4 0.660328 0.0826079 0.0423519
803 5 0.619334 0.0703566 0.0246235
809 5 0.643568 0.0782752 0.1353
808 4 0.640226 0.0563048 0.179923
764 5 0.769358 0.0921337 0.192552
375 5 0.840661 0.102191 0.11473
509 5 0.801449 0.124886 0.0502963
373 4 0.837392 0.0965032 0.0666606
707 5 0.987685 0.0795264 0.199038
763 4 0.810156 0.114509 0.196063
450 5 0.835351 0.0105387 0.174938
815 5 0.899 0.0883376 0.0120917
737 5 0.16151 0.211628 0.00175204
695 5 0.139826 0.252465 0.139952
694 4 0.167558 0.231244 0.171704
498 5 0.184904 0.374303 0.103165
218 5 0.0444853 0.239513 0.0645325
64 4 0.0118996 0.398401 0.0355738
536 5 0.0356498 0.311015 0.175251
429 5 0.0107999 0.308545 0.0607685
217 4 0.0285642 0.273876 0.0945671
605 5 0.394861 0.221493 0.119868
656 5 0.217201 0.312512 0.129638
4 4 0.227053 0.34907 0.100956
604 4 0.353696 0.236102 0.136393
734 5 0.280484 0.335491 0.0195285
606 5 0.360135 0.283498 0.138975
661 4 0.373382 0.380386 0.113694
663 5 0.3474 0.366894 0.0729549
864 5 0.488675 0.377284 0.00761172
600 5 0.552033 0.217221 0.0485507
598 4 0.582442 0.213436 0.0849867
723 5 0.566464 0.280791 0.150082
721 4 0.560175 0.324808 0.169568
444 5 0.517978 0.370738 0.115878
525 5 0.737361 0.205399 0.182531
544 4 0.747935 0.244736 0.158484
546 5 0.795795 0.23569 0.16264
138 5 0.643305 0.364139 0.0980791
109 4 0.678031 0.337576 0.0791932
140 5 0.772185 0.383509 0.120686
602 5 0.709451 0.308303 0.198094
86 5 0.660194 0.307368 0.0453305
227 5 0.859596 0.237291 0.0242273
226 4 0.892809 0.272007 0.0360349
228 5 0.929594 0.252835 0.00851361
11 5 0.902256 0.249753 0.13098
10 4 0.884856 0.256407 0.176613
191 5 0.0780801 0.421126 0.0908201
841 4 0.119646 0.430988 0.111448
842 5 0.113405 0.443562 0.160347
786 5 0.14358 0.495089 0.0586133
320 5 0.185556 0.55951 0.0523892
150 5 0.0643073 0.569888 0.167271
316 4 0.153868 0.53288 0.0318374
416 5 0.297937 0.434932 0.168082
578 5 0.367311 0.567165 0.156662
577 4 0.330494 0.581889 0.129661
744 5 0.292162 0.567787 0.158456
353 5 0.355839 0.514301 0.0440054
523 4 0.385886 0.529746 0.00894748
662 5 0.411684 0.409037 0.0966819
338 5 0.539761 0.443518 0.0884057
337 4 0.505619 0.409775 0.0909587
56 5 0.518505 0.566796 0.0582939
57 5 0.445011 0.582269 0.0340755
380 5 0.636901 0.521573 0.076858
679 4 0.601162 0.523789 0.0482389
562 4 0.71396 0.532097 0.130828
564 5 0.713459 0.544988 0.176536
54 5 0.743535 0.494835 0.132055
437 5 0.786293 0.598837 0.118223
137 5 0.610223 0.49191 0.0135859
66 5 0.966224 0.415395 0.0364962
793 4 0.957502 0.500962 0.198099
141 5 0.829712 0.40703 0.161718
139 4 0.805073 0.41854 0.120049
83 5 0.969686 0.559187 0.100233
794 5 0.937926 0.459475 0.195819
33 5 0.864973 0.595213 0.101752
245 5 0.846551 0.441074 0.0513091
244 4 0.885758 0.455045 0.0294354
82 4 0.935911 0.580431 0.0714286
360 5 0.0809641 0.639977 0.134801
148 4 0.101355 0.600061 0.155963
168 5 0.0236815 0.729144 0.0950872
649 4 0.0393108 0.724153 0.141236
651 5 0.00748306 0.742653 0.174396
503 5 0.112046 0.766595 0.154055
502 4 0.156965 0.791258 0.155417
736 4 0.320628 0.668473 0.00803555
219 5 0.329848 0.640302 0.0495527
738 5 0.294791 0.707915 0.0225358
493 4 0.251103 0.767611 0.0520479
494 5 0.208928 0.765621 0.0780883
495 5 0.280029 0.794254 0.0771916
102 5 0.337608 0.679546 0.180076
100 4 0.367503 0.719026 0.176423
55 4 0.485197 0.60409 0.0520352
669 5 0.40368 0.726144 0.0119675
220 4 0.499354 0.685294 0.168446
667 4 0.430251 0.763582 0.00973663
293 5 0.497971 0.659407 0.128628
111 5 0.452234 0.703203 0.169485
339 5 0.414765 0.793239 0.0434574
203 5 0.547005 0.760847 0.171308
671 5 0.534965 0.637962 0.00254384
530 5 0.678542 0.623652 0.0590785
823 4 0.686664 0.662116 0.0318782
824 5 0.641411 0.669043 0.0173458
175 4 0.710194 0.788686 0.0677878
176 5 0.7013 0.740425 0.0666799
260 5 0.64826 0.678697 0.19001
361 4 0.773043 0.759462 0.199931
221 5 0.772473 0.7953 0.166371
362 5 0.797809 0.72001 0.180348
31 4 0.832474 0.614153 0.131114
84 5 0.948222 0.625646 0.0610098
517 4 0.95803 0.720437 0.043284
453 5 0.922981 0.740837 0.0689379
518 5 0.964779 0.750925 0.00120694
689 5 0.909259 0.798714 0.159383
688 4 0.940538 0.790285 0.196821
427 4 0.0222971 0.979517 0.181607
691 4 0.0835056 0.828308 0.0302464
65 5 0.0380316 0.840141 0.0429178
14 5 0.0695111 0.984758 0.16355
693 5 0.109233 0.833148 0.0713084
135 5 0.159567 0.964507 0.128216
369 5 0.20061 0.868119 0.142048
457 4 0.225827 0.911921 0.140246
459 5 0.231068 0.925364 0.187591
856 4 0.342935 0.846256 0.108014
857 5 0.309099 0.875735 0.123995
858 5 0.374186 0.842695 0.144329
759 5 0.560807 0.821222 0.126208
231 5 0.511775 0.897678 0.0539433
762 5 0.591013 0.923429 0.182852
354 5 0.402827 0.974023 0.0563153
250 4 0.439312 0.949953 0.0350912
571 4 0.554746 0.873082 0.0583196
572 5 0.577464 0.889458 0.0175796
202 4 0.576105 0.80068 0.165682
567 5 0.713027 0.992381 0.137648
351 5 0.675436 0.811546 0.0892721
565 4 0.754675 0.974511 0.139388
566 5 0.769738 0.977045 0.0944021
294 5 0.984948 0.923201 0.113882
292 4 0.966515 0.897967 0.0771372
768 5 0.973293 0.929436 0.0395023
213 5 0.810021 0.812616 0.0786387
16 4 0.854268 0.81311 0.087653
18 5 0.873931 0.848676 0.0630386
92 5 0.905482 0.97351 0.176477
177 5 0.0596661 0.0640728 0.355805
627 5 0.0711481 0.00188167 0.30612
432 5 0.0162131 0.166384 0.390697
625 4 0.0838445 0.0470403 0.313857
463 4 0.115215 0.180917 0.281389
465 5 0.106603 0.132274 0.289038
381 5 0.185049 0.0600465 0.25065
80 5 0.163223 0.137486 0.375172
761 5 0.237244 0.106229 0.221502
171 5 0.35515 0.00571599 0.26893
524 5 0.343072 0.146957 0.25887
379 4 0.219102 0.0604191 0.215698
709 4 0.38546 0.078695 0.297848
711 5 0.382329 0.0775863 0.348097
394 4 0.30702 0.179379 0.257519
710 5 0.431887 0.0645523 0.28939
211 4 0.473918 0.126048 0.200426
801 5 0.5893 0.179023 0.282026
212 5 0.507006 0.10144 0.224791
131 5 0.506761 0.0113394 0.336148
352 4 0.517302 0.0357249 0.294367
799 4 0.629948 0.152045 0.289653
810 5 0.641358 0.0909856 0.216145
839 5 0.685102 0.0749215 0.354616
9 5 0.746081 0.124874 0.370274
784 4 0.711576 0.0983007 0.389663
288 5 0.668422 0.183723 0.29838
103 4 0.967923 0.121661 0.200311
105 5 0.997756 0.150134 0.22333
765 5 0.828932 0.104496 0.240847
75 5 0.887738 0.0118825 0.2796
73 4 0.894481 0.0373828 0.321095
848 5 0.887803 0.111376 0.326508
74 5 0.862446 0.0224822 0.353926
466 4 0.88049 0.159043 0.324229
468 5 0.857859 0.171504 0.368748
696 5 0.143464 0.20991 0.204665
464 5 0.0782918 0.203497 0.302399
161 5 0.0859248 0.338936 0.228188
160 4 0.0373356 0.328369 0.221137
646 4 0.161207 0.383489 0.264363
828 5 0.164986 0.272273 0.389695
396 5 0.316232 0.203684 0.21578
45 5 0.21278 0.303537 0.298997
752 5 0.262227 0.242666 0.30093
751 4 0.237153 0.271972 0.328599
225 5 0.285533 0.33708 0.365873
767 5 0.369284 0.366556 0.308667
223 4 0.322665 0.357489 0.390081
5 5 0.354349 0.319849 0.393209
174 5 0.54115 0.318464 0.213961
587 5 0.457762 0.279741 0.268455
843 5 0.44915 0.382206 0.290656
586 4 0.471442 0.234273 0.284006
753 5 0.47376 0.203481 0.248938
617 5 0.445827 0.253173 0.38561
603 5 0.528027 0.377087 0.34708
673 4 0.527867 0.373975 0.300272
766 4 0.402265 0.374097 0.273429
446 5 0.796218 0.24037 0.304118
445 4 0.753249 0.231548 0.313899
773 5 0.641878 0.340506 0.224573
601 4 0.690366 0.336215 0.234823
614 5 0.72783 0.262755 0.289143
193 4 0.627049 0.267335 0.399738
635 5 0.733682 0.39524 0.26658
194 5 0.609457 0.300302 0.36789
108 5 0.875394 0.337353 0.210199
106 4 0.873355 0.381831 0.225882
107 5 0.836201 0.385703 0.257007
95 5 0.987739 0.275636 0.267858
94 4 0.991044 0.240619 0.305819
96 5 0.950314 0.212548 0.30535
846 5 0.901954 0.224358 0.201725
20 5 0.95823 0.394995 0.328261
497 5 0.181209 0.57579 0.203867
308 5 0.141168 0.404445 0.303878
401 5 0.0475817 0.437665 0.383774
812 5 0.0872287 0.532658 0.351674
400 4 0.0939352 0.447467 0.373702
811 4 0.0958867 0.57932 0.332122
813 5 0.142319 0.580094 0.314559
595 4 0.213969 0.568671 0.240171
596 5 0.234605 0.522002 0.23646
648 5 0.203252 0.406589 0.262621
417 5 0.336778 0.456826 0.22535
415 4 0.289737 0.455851 0.209712
392 5 0.39566 0.512897 0.391573
674 5 0.547819 0.4153 0.281885
425 5 0.417135 0.464226 0.22496
424 4 0.435956 0.509132 0.210357
426 5 0.430092 0.531701 0.253434
29 5 0.541529 0.50712 0.23129
743 5 0.583746 0.50255 0.297715
742 4 0.576283 0.481706 0.254866
310 4 0.41035 0.579469 0.343646
636 5 0.755395 0.471114 0.282314
553 4 0.632616 0.513173 0.380155
407 5 0.671637 0.538258 0.355991
541 4 0.729853 0.565403 0.292257
634 4 0.767103 0.425192 0.286815
543 5 0.774212 0.583687 0.281239
422 5 0.779038 0.427446 0.369628
795 5 0.931208 0.526751 0.228695
7 4 0.959803 0.413235 0.371779
232 4 0.922947 0.539084 0.362494
234 5 0.932688 0.488976 0.361052
698 5 0.87458 0.548409 0.360646
770 5 0.0102413 0.607305 0.28284
757 4 0.000703815 0.653867 0.267606
680 5 0.0221035 0.660207 0.222854
849 5 0.0387859 0.742821 0.315786
847 4 0.0527197 0.784509 0.33505
720 5 0.0496432 0.789261 0.383255
800 5 0.267537 0.636944 0.303327
850 4 0.309558 0.66175 0.314939
851 5 0.295022 0.690329 0.352794
629 5 0.377417 0.731611 0.225082
775 4 0.269666 0.767172 0.395987
312 5 0.370123 0.607734 0.332271
238 4 0.379943 0.794382 0.294812
240 5 0.39679 0.769388 0.331614
441 5 0.23385 0.788444 0.369058
311 5 0.448037 0.611151 0.343184
282 5 0.541938 0.709753 0.354925
280 4 0.502032 0.68997 0.373506
364 4 0.580169 0.790796 0.311553
545 5 0.703969 0.600922 0.262192
259 4 0.679826 0.674706 0.225591
261 5 0.708169 0.717724 0.22065
451 4 0.714771 0.788113 0.35342
384 5 0.74504 0.780658 0.317538
452 5 0.667364 0.778662 0.337619
383 5 0.856018 0.623347 0.205548
382 4 0.861397 0.617047 0.254399
296 5 0.907797 0.625533 0.259542
385 4 0.865641 0.736449 0.308754
267 5 0.892566 0.719571 0.345402
386 5 0.851369 0.694231 0.290279
690 5 0.916884 0.774414 0.237397
563 5 0.948097 0.612851 0.391978
855 5 0.98765 0.681552 0.390914
356 5 0.16626 0.800877 0.202437
214 4 0.0289415 0.921767 0.324078
216 5 0.0432139 0.874668 0.322717
215 5 0.0337696 0.931446 0.373789
378 5 0.140664 0.806203 0.316743
376 4 0.18645 0.808785 0.297529
428 5 0.031851 0.966097 0.227485
239 5 0.337724 0.800892 0.312779
377 5 0.20302 0.85669 0.299169
169 4 0.348392 0.966788 0.23924
639 5 0.219444 0.954965 0.328518
637 4 0.228653 0.927615 0.291062
317 5 0.274653 0.934287 0.284659
170 5 0.391125 0.943973 0.244421
283 4 0.372891 0.898035 0.398585
640 4 0.453386 0.874164 0.210807
641 5 0.435475 0.840859 0.243239
581 5 0.498772 0.859494 0.204916
99 5 0.520486 0.998483 0.263934
252 5 0.581246 0.805082 0.264913
366 5 0.574884 0.829717 0.338234
44 5 0.438856 0.948546 0.398615
672 5 0.630041 0.986909 0.211164
760 4 0.614037 0.941476 0.222995
299 5 0.744251 0.905968 0.263943
298 4 0.788839 0.89403 0.274127
583 4 0.649412 0.975329 0.354305
584 5 0.638245 0.965645 0.307442
585 5 0.695162 0.961434 0.359336
13 4 0.745476 0.909136 0.399719
626 5 0.733844 0.867074 0.376269
15 5 0.792481 0.913201 0.390017
39 5 0.607083 0.914952 0.39275
777 5 0.816463 0.920933 0.2451
448 4 0.870965 0.99093 0.205657
253 4 0.883982 0.885056 0.373602
255 5 0.8621 0.8624 0.336606
624 5 0.915554 0.915485 0.348559
529 4 0.0298825 0.124454 0.417706
98 5 0.114472 0.161211 0.52951
143 5 0.0228262 0.0138123 0.480928
23 5 0.185992 0.0409436 0.401808
731 5 0.0432627 0.086572 0.584736
829 4 0.068278 0.0868429 0.543511
147 5 0.190076 0.01042 0.585076
97 4 0.150952 0.194578 0.530874
506 5 0.184291 0.140185 0.449611
831 5 0.110384 0.0648293 0.558896
727 4 0.335179 0.143533 0.419396
729 5 0.334998 0.14357 0.468751
728 5 0.289865 0.158482 0.409533
701 5 0.20584 0.0178407 0.513607
264 5 0.30716 0.00811799 0.572442
145 4 0.206831 0.0431471 0.555799
198 5 0.385747 0.0189546 0.549917
772 4 0.200672 0.132006 0.40459
712 4 0.361462 0.171031 0.576383
302 5 0.450288 0.091471 0.509131
467 5 0.469257 0.0249923 0.465082
301 4 0.464507 0.0464888 0.511105
51 5 0.530175 0.0180146 0.563395
643 4 0.57027 0.0103185 0.5907
537 5 0.665082 0.138064 0.456776
535 4 0.650101 0.147189 0.502868
681 5 0.602734 0.165527 0.501852
515 5 0.692299 0.0676331 0.540242
574 4 0.696119 0.0238598 0.561978
41 5 0.784258 0.0388083 0.422478
575 5 0.648696 0.02025 0.579317
638 5 0.987774 0.115016 0.444983
703 4 0.929762 0.0790547 0.49516
40 4 0.826734 0.0201596 0.434977
704 5 0.88951 0.063945 0.475454
504 5 0.917138 0.109572 0.532981
358 4 0.903326 0.193299 0.57806
826 4 0.125058 0.275724 0.418264
359 5 0.119648 0.320882 0.424231
447 5 0.144412 0.223625 0.490638
26 5 0.0809059 0.238284 0.581774
224 5 0.0228916 0.293887 0.574798
268 4 0.0258842 0.362257 0.529608
269 5 0.00686184 0.355012 0.486597
570 5 0.222727 0.253104 0.541673
158 5 0.262777 0.349578 0.54056
243 5 0.382207 0.213828 0.401647
568 4 0.261816 0.272093 0.563112
157 4 0.270185 0.399721 0.536683
372 5 0.324465 0.203678 0.571254
347 5 0.590597 0.255809 0.427432
322 4 0.525974 0.210263 0.494135
616 4 0.413436 0.248913 0.417522
551 5 0.592338 0.398811 0.45639
550 4 0.551711 0.398204 0.427814
323 5 0.485763 0.214524 0.466269
324 5 0.509229 0.210354 0.543911
510 5 0.698277 0.299737 0.461523
17 5 0.760582 0.351659 0.450106
612 5 0.721359 0.211479 0.571695
355 4 0.735587 0.322127 0.482852
93 5 0.686423 0.399619 0.492394
521 5 0.791451 0.247824 0.470732
21 5 0.929523 0.388953 0.401206
297 5 0.956735 0.274245 0.420224
522 5 0.84972 0.206691 0.504135
520 4 0.819905 0.212239 0.463593
295 4 0.929661 0.303091 0.448072
222 5 0.892331 0.272481 0.457831
270 5 0.993129 0.382693 0.556445
68 5 0.869725 0.391796 0.520733
388 4 0.862654 0.370887 0.562207
390 5 0.885848 0.399385 0.595554
402 5 0.122 0.448469 0.413154
678 5 0.12278 0.435526 0.524964
825 5 0.0164004 0.546856 0.524759
490 4 0.0521875 0.580367 0.538111
456 5 0.0879546 0.550965 0.559391
676 4 0.153888 0.438763 0.489168
125 5 0.197707 0.420482 0.50673
159 5 0.29848 0.409195 0.499003
835 4 0.277717 0.553774 0.49556
836 5 0.326042 0.54699 0.483913
837 5 0.264052 0.595067 0.476143
81 5 0.364245 0.443972 0.415185
79 4 0.382837 0.485726 0.431641
230 5 0.232788 0.542545 0.557509
470 5 0.209593 0.479408 0.593935
483 5 0.573867 0.554678 0.436309
481 4 0.550566 0.59069 0.463081
552 5 0.527047 0.431897 0.445744
76 4 0.475744 0.503897 0.528078
78 5 0.446959 0.491261 0.492255
77 5 0.492283 0.54402 0.508561
750 5 0.528722 0.487872 0.59878
421 4 0.79673 0.429769 0.414816
423 5 0.78201 0.470768 0.432697
555 5 0.647146 0.478497 0.411385
363 5 0.724336 0.561925 0.483601
389 5 0.667404 0.45562 0.53487
91 4 0.661608 0.440822 0.490208
508 4 0.761747 0.556395 0.453047
588 5 0.798314 0.574296 0.485021
833 5 0.937492 0.516758 0.455881
834 5 0.917003 0.520093 0.52973
832 4 0.95346 0.504984 0.500902
127 4 0.860809 0.581277 0.570619
740 5 0.0883215 0.637271 0.40932
531 5 0.0683579 0.648831 0.482436
806 5 0.155252 0.687248 0.486459
666 5 0.0112075 0.762147 0.589222
739 4 0.0699255 0.673959 0.437796
318 5 0.0104991 0.642232 0.592383
805 4 0.202664 0.688969 0.498347
807 5 0.219636 0.711756 0.461004
499 4 0.368779 0.669761 0.484494
162 5 0.258919 0.70569 0.570912
501 5 0.330004 0.671886 0.510895
769 4 0.426579 0.780766 0.435435
281 5 0.514345 0.656051 0.407914
771 5 0.466322 0.759141 0.415478
482 5 0.591555 0.610619 0.484824
500 5 0.405578 0.658488 0.514656
330 5 0.400329 0.746326 0.459811
348 5 0.517891 0.661513 0.572136
346 4 0.471979 0.674745 0.573473
188 5 0.447768 0.64345 0.596231
50 5 0.469373 0.782801 0.556048
119 5 0.676392 0.64258 0.581548
462 5 0.747132 0.720077 0.400076
840 5 0.756152 0.64607 0.409799
460 4 0.751618 0.688854 0.43686
118 4 0.684265 0.61773 0.540553
120 5 0.68656 0.654399 0.510355
115 4 0.724423 0.779916 0.5414
852 5 0.730309 0.753426 0.500929
117 5 0.766229 0.790537 0.562821
853 4 0.946127 0.659496 0.402212
405 5 0.822877 0.697193 0.482048
403 4 0.869883 0.692049 0.499568
716 5 0.898242 0.670278 0.465615
192 5 0.919349 0.765234 0.471557
128 5 0.865325 0.627477 0.551079
24 5 0.149744 0.978827 0.422161
22 4 0.19364 0.992953 0.410842
142 4 0.0502717 0.980787 0.462167
664 4 0.0311262 0.806346 0.573454
665 5 0.00168751 0.808611 0.53462
726 5 0.108903 0.822695 0.50702
144 5 0.0520664 0.9435 0.494019
724 4 0.131751 0.848604 0.476148
725 5 0.178996 0.840923 0.483469
718 4 0.352578 0.991793 0.580518
776 5 0.285083 0.8049 0.420906
266 5 0.288268 0.885207 0.54077
149 5 0.249142 0.929436 0.488995
265 4 0.265396 0.885564 0.496758
284 5 0.346701 0.910041 0.440202
449 5 0.38112 0.832658 0.594872
491 5 0.400408 0.860497 0.413084
43 4 0.480764 0.974753 0.407948
37 4 0.571743 0.884452 0.40968
6 5 0.512758 0.939074 0.415386
573 5 0.58862 0.873121 0.454403
779 5 0.52763 0.835171 0.578462
49 4 0.485416 0.814556 0.592954
333 5 0.614401 0.903247 0.54712
331 4 0.618796 0.85883 0.536042
332 5 0.662201 0.839778 0.537803
556 4 0.77728 0.921973 0.531166
558 5 0.759981 0.906286 0.487252
557 5 0.744089 0.960896 0.541577
708 5 0.882102 0.838644 0.558287
431 5 0.820815 0.875363 0.579581
257 5 0.814361 0.986589 0.467732
303 5 0.925097 0.841848 0.438639
190 4 0.935949 0.811457 0.477755
430 4 0.851611 0.842034 0.597229
827 5 0.138849 0.154781 0.700977
496 4 0.112307 0.192719 0.690655
830 5 0.0677543 0.174384 0.689577
242 5 0.0218301 0.0627205 0.692588
335 5 0.186801 0.0803799 0.772628
367 4 0.196377 0.123772 0.755499
685 4 0.0697359 0.00445191 0.708427
622 4 0.341401 0.135374 0.727548
387 5 0.293361 0.132014 0.728502
623 5 0.356229 0.175209 0.750644
309 5 0.355796 0.156329 0.622824
116 5 0.211477 0.146522 0.796919
122 5 0.382634 0.0118055 0.663114
123 5 0.39311 0.0606575 0.716977
121 4 0.405611 0.0165051 0.705638
792 5 0.559121 0.172848 0.653854
644 5 0.562595 0.00101479 0.640408
791 5 0.603806 0.121918 0.614493
790 4 0.602233 0.150842 0.652367
519 5 0.699245 0.11321 0.77511
374 5 0.643658 0.152003 0.741449
655 4 0.659749 0.13998 0.785098
591 5 0.751925 0.0411111 0.635582
741 5 0.783091 0.0226759 0.77291
349 4 0.779557 0.0485763 0.680704
350 5 0.790429 0.0947812 0.678637
404 5 0.670598 0.197905 0.633093
38 5 0.870551 0.187666 0.615845
27 5 0.946213 0.196408 0.600523
608 5 0.925714 0.0293531 0.639427
241 4 0.992469 0.098955 0.673822
609 5 0.850409 0.00717819 0.646617
368 5 0.96895 0.120628 0.712538
181 4 0.822397 0.186876 0.681537
844 4 0.912896 0.145711 0.780716
845 5 0.87012 0.129508 0.793573
25 4 0.039747 0.257258 0.601982
1 4 0.141045 0.381535 0.628435
2 5 0.101739 0.354866 0.616474
516 5 0.187454 0.253564 0.698439
3 5 0.172713 0.353406 0.650936
345 5 0.0418218 0.317873 0.77072
344 5 0.0352029 0.281678 0.700766
343 4 0.00857966 0.303991 0.734682
549 5 0.0989369 0.205614 0.790305
514 4 0.221666 0.287022 0.692216
576 5 0.232784 0.313678 0.731707
745 4 0.221923 0.379736 0.785274
569 5 0.255098 0.276577 0.610744
780 5 0.389719 0.295859 0.775204
210 5 0.381771 0.395214 0.70967
778 4 0.382579 0.251017 0.79753
580 4 0.491639 0.221956 0.618553
208 4 0.406786 0.372385 0.74636
582 5 0.444224 0.216716 0.612011
758 5 0.495321 0.26941 0.619757
70 4 0.518084 0.343707 0.676489
705 5 0.556848 0.324881 0.764726
71 5 0.478893 0.358479 0.699758
72 5 0.534998 0.387611 0.666011
440 5 0.775416 0.350107 0.60235
488 5 0.713383 0.237084 0.792422
182 5 0.778249 0.203873 0.670356
610 4 0.711928 0.219196 0.617647
87 5 0.713744 0.308514 0.628433
85 4 0.738258 0.348699 0.634762
326 5 0.775141 0.373504 0.694872
327 5 0.757868 0.359126 0.770441
325 4 0.787189 0.388735 0.74136
183 5 0.847295 0.219236 0.706944
112 4 0.875224 0.277004 0.745654
114 5 0.922015 0.280705 0.735755
113 5 0.85734 0.321131 0.739957
60 5 0.965625 0.378879 0.673042
315 5 0.103797 0.442628 0.67832
313 4 0.0790414 0.473365 0.703709
314 5 0.091597 0.514933 0.683921
278 5 0.0518392 0.493073 0.779816
747 5 0.234547 0.422604 0.767084
410 5 0.312187 0.428055 0.608444
469 4 0.217192 0.525617 0.603044
251 5 0.228832 0.517677 0.682683
697 4 0.240379 0.494664 0.724211
411 5 0.315961 0.474724 0.674723
699 5 0.236658 0.530753 0.756692
861 5 0.379716 0.536719 0.637168
409 4 0.343571 0.446545 0.64363
859 4 0.383715 0.584109 0.643241
209 5 0.40209 0.407425 0.779735
436 4 0.560769 0.475028 0.635018
659 5 0.400438 0.575596 0.729574
486 5 0.558946 0.517627 0.701451
484 4 0.5562 0.544698 0.743507
660 5 0.464767 0.552131 0.757648
443 5 0.564637 0.588936 0.725964
658 4 0.420397 0.562067 0.771503
438 5 0.607472 0.467072 0.614741
657 5 0.711571 0.425905 0.620947
328 4 0.685746 0.467836 0.617366
554 5 0.714795 0.503194 0.633808
781 4 0.755189 0.564767 0.675576
782 5 0.792336 0.553939 0.709125
129 5 0.840254 0.581829 0.611428
155 5 0.97526 0.569123 0.747285
611 5 0.937518 0.575439 0.679291
67 4 0.958283 0.541041 0.70751
645 5 0.978272 0.450755 0.661537
58 4 0.950614 0.41355 0.645492
620 5 0.824286 0.464095 0.7526
619 4 0.836812 0.512025 0.765374
621 5 0.88252 0.523996 0.746277
196 4 0.000515706 0.6773 0.627529
197 5 0.0389197 0.668652 0.657368
256 4 0.118739 0.612777 0.693057
593 5 0.115993 0.635305 0.736029
258 5 0.163261 0.60801 0.683104
291 5 0.0746781 0.723782 0.791535
860 5 0.342089 0.603925 0.625995
682 4 0.291881 0.704827 0.608106
59 5 0.260919 0.720723 0.684013
677 5 0.313114 0.748123 0.60384
19 4 0.244854 0.73518 0.730642
8 5 0.201833 0.752877 0.714195
32 5 0.307403 0.752042 0.776609
236 5 0.415355 0.779038 0.75762
235 4 0.460175 0.792188 0.736012
237 5 0.453702 0.791723 0.688334
34 4 0.570566 0.708024 0.741529
633 5 0.530354 0.737698 0.742268
35 5 0.587331 0.71664 0.784904
722 5 0.741397 0.608931 0.690239
414 5 0.685831 0.727074 0.631716
412 4 0.650333 0.689801 0.630629
413 5 0.622786 0.701825 0.670469
418 4 0.773845 0.725963 0.698353
254 5 0.797709 0.766461 0.697451
420 5 0.757851 0.723297 0.746335
63 5 0.907388 0.671678 0.652258
62 5 0.839328 0.676705 0.688904
61 4 0.881831 0.653935 0.692562
285 5 0.910457 0.772911 0.770478
700 4 0.916791 0.736517 0.799466
702 5 0.906862 0.691272 0.777273
206 5 0.168206 0.853161 0.646808
207 5 0.119162 0.802483 0.618897
205 4 0.15703 0.806066 0.652379
391 4 0.0501959 0.809945 0.756211
687 5 0.0486752 0.971848 0.673329
393 5 0.0874378 0.824831 0.733229
706 4 0.18489 0.955976 0.656801
195 5 0.15182 0.970228 0.691776
686 5 0.04965 0.987377 0.750623
505 4 0.0127843 0.931951 0.621083
713 5 0.0187942 0.884984 0.622114
632 5 0.229834 0.953978 0.674538
28 4 0.333919 0.827485 0.601332
30 5 0.326272 0.852598 0.642644
618 5 0.33459 0.949147 0.712791
406 4 0.303916 0.914624 0.699933
408 5 0.28019 0.907866 0.741752
180 5 0.375011 0.999755 0.798121
395 5 0.498519 0.984002 0.719134
319 4 0.547169 0.985281 0.719073
201 5 0.560102 0.941253 0.733328
756 5 0.521269 0.833346 0.769105
754 4 0.549986 0.868621 0.791743
233 5 0.964397 0.944895 0.625606
607 4 0.896104 0.991035 0.644651
540 5 0.861612 0.847495 0.689082
539 5 0.827932 0.84883 0.7656
538 4 0.866131 0.836488 0.738323
561 5 0.900765 0.910301 0.761115
559 4 0.90871 0.955645 0.777434
560 5 0.898663 0.985352 0.741654
838 4 0.145383 0.0427398 0.98896
548 5 0.117533 0.175695 0.859902
146 5 0.191273 0.047747 0.980414
434 5 0.00898146 0.197045 0.883461
166 4 0.16991 0.00937691 0.83253
69 5 0.0563758 0.00779609 0.992378
304 4 0.239315 0.170139 0.8763
306 5 0.269798 0.145758 0.901422
167 5 0.201743 0.0135507 0.869236
329 5 0.308322 0.0208232 0.894279
136 4 0.272668 0.0263982 0.930549
787 4 0.533686 0.0544517 0.990942
789 5 0.502299 0.0148692 0.99347
788 5 0.548571 0.0581634 0.946347
248 5 0.543015 0.0355731 0.818245
247 4 0.570099 0.060454 0.850111
797 5 0.519653 0.140041 0.847589
748 4 0.497382 0.179924 0.833403
592 4 0.76317 0.00889626 0.813934
249 5 0.601649 0.0835669 0.822348
204 5 0.782955 0.147782 0.959293
471 5 0.796288 0.0703352 0.86801
307 4 0.767212 0.181648 0.992476
692 5 0.936577 0.144422 0.823321
730 4 0.811593 0.0951719 0.907107
814 4 0.925256 0.0720709 0.97449
816 5 0.946993 0.108394 0.952373
433 4 0.970388 0.176207 0.904881
732 5 0.856953 0.0792128 0.923672
132 5 0.978251 0.015833 0.976953
526 4 0.0920608 0.362624 0.833492
547 4 0.0823492 0.201858 0.83755
527 5 0.140375 0.368949 0.832008
854 5 0.0196069 0.393442 0.99077
821 5 0.0849968 0.265206 0.959274
822 5 0.0844173 0.310729 0.90424
820 4 0.0773698 0.311119 0.952399
305 5 0.254435 0.217618 0.881197
733 4 0.316319 0.35619 0.989915
746 5 0.257543 0.366586 0.814653
357 5 0.308011 0.314681 0.914372
628 4 0.294513 0.291164 0.874621
630 5 0.330301 0.271751 0.849878
735 5 0.291811 0.388369 0.967849
863 5 0.418885 0.35828 0.983507
862 4 0.465794 0.359726 0.96903
272 5 0.490392 0.282426 0.954341
187 4 0.56849 0.299826 0.804658
189 5 0.559395 0.335919 0.835648
271 4 0.515218 0.241407 0.95919
783 5 0.425327 0.23024 0.808068
749 5 0.529989 0.215764 0.822469
273 5 0.503425 0.214149 0.919695
489 5 0.659495 0.28237 0.803392
487 4 0.708334 0.280641 0.80957
774 5 0.731215 0.209955 0.976795
164 5 0.61391 0.249301 0.939112
89 5 0.656903 0.388534 0.974522
163 4 0.659888 0.263169 0.954952
165 5 0.677934 0.28499 0.91333
275 5 0.835104 0.280465 0.918358
435 5 0.934298 0.21062 0.90453
613 4 0.87192 0.268308 0.889877
173 5 0.917607 0.395876 0.866512
615 5 0.860457 0.258985 0.843179
110 5 0.136389 0.554795 0.947514
528 5 0.07356 0.40822 0.837832
817 4 0.141852 0.572692 0.901418
819 5 0.115351 0.539361 0.874707
277 4 0.0536784 0.490843 0.83062
279 5 0.0186321 0.51868 0.847298
341 5 0.208622 0.470109 0.958118
340 4 0.257509 0.463956 0.946085
342 5 0.258209 0.482951 0.903294
104 5 0.212186 0.563913 0.858714
262 4 0.253442 0.556618 0.828522
263 5 0.279612 0.597209 0.838832
472 4 0.392179 0.474499 0.878116
542 5 0.384163 0.499939 0.973158
473 5 0.400854 0.511858 0.85022
474 5 0.434974 0.456754 0.888028
631 4 0.547379 0.419455 0.86116
650 5 0.563509 0.441287 0.822909
654 5 0.58045 0.428125 0.898568
652 4 0.629717 0.599583 0.861232
714 5 0.693817 0.450694 0.942873
88 4 0.649611 0.429695 0.947951
597 5 0.707215 0.546807 0.879923
454 4 0.741704 0.511147 0.882227
455 5 0.772687 0.516674 0.845473
458 5 0.61019 0.577627 0.823954
172 4 0.876138 0.421848 0.875727
321 5 0.8706 0.456175 0.842682
476 5 0.831878 0.535273 0.943813
477 5 0.874253 0.574393 0.993198
246 5 0.885613 0.440236 0.98416
475 4 0.859577 0.574329 0.947437
512 5 0.95499 0.589885 0.898552
511 4 0.971445 0.593195 0.852191
289 4 0.0799257 0.677848 0.810362
290 5 0.10973 0.67645 0.847892
590 5 0.00807636 0.795895 0.91411
101 5 0.386852 0.614709 0.84459
229 4 0.354361 0.642162 0.867706
334 4 0.348931 0.76097 0.800729
485 5 0.355802 0.640455 0.916158
675 5 0.349344 0.797919 0.874818
336 5 0.353613 0.716707 0.827323
42 5 0.383853 0.793279 0.943459
670 4 0.564771 0.65466 0.964476
419 5 0.54199 0.697342 0.957337
653 5 0.598891 0.610033 0.897492
534 5 0.67877 0.777128 0.868885
152 5 0.69765 0.662808 0.817293
151 4 0.715505 0.705404 0.824679
153 5 0.746286 0.692272 0.86092
647 5 0.753838 0.694196 0.980394
286 4 0.78545 0.695063 0.940006
365 5 0.817924 0.778278 0.936469
300 5 0.94985 0.760228 0.871429
513 5 0.997038 0.633034 0.849055
287 5 0.822158 0.659841 0.944063
589 4 0.966941 0.770909 0.918895
48 5 0.0504056 0.828628 0.801393
478 4 0.0716759 0.860259 0.903503
480 5 0.0866398 0.871454 0.945927
36 5 0.126797 0.994742 0.855753
130 4 0.0164739 0.98472 0.980861
479 5 0.0604225 0.900979 0.880925
796 4 0.0240378 0.981218 0.843264
798 5 0.0199568 0.985427 0.893724
642 5 0.189224 0.93143 0.80794
178 4 0.355988 0.989667 0.841073
52 4 0.217048 0.892215 0.801988
179 5 0.389462 0.962764 0.862616
53 5 0.225866 0.867626 0.844633
442 4 0.368845 0.825691 0.908225
683 5 0.297453 0.850845 0.929054
492 5 0.227839 0.859099 0.965792
439 4 0.258409 0.88239 0.936675
461 5 0.279268 0.983082 0.950922
755 5 0.582525 0.84321 0.815194
684 5 0.487696 0.909261 0.860383
199 4 0.458444 0.918186 0.897366
200 5 0.436821 0.872603 0.895748
579 5 0.424599 0.939666 0.990682
184 4 0.799318 0.944034 0.997557
594 5 0.764978 0.959889 0.814209
46 4 0.656585 0.920467 0.968177
668 5 0.69978 0.920674 0.98899
397 4 0.754035 0.879181 0.811186
47 5 0.652387 0.962364 0.94445
533 5 0.657021 0.852348 0.903682
532 4 0.65116 0.817456 0.874059
398 5 0.71443 0.851057 0.815702
399 5 0.775611 0.865827 0.852263
186 5 0.823574 0.981705 0.976974
185 5 0.80869 0.899654 0.975979
90 5 0.978315 0.973441 0.827117
154 4 0.830204 0.821921 0.914402
156 5 0.877695 0.814998 0.918468
ITEM: TIMESTEP
100
ITEM: NUMBER OF ATOMS
864
ITEM: BOX BOUNDS pp pp pp
1.8989442868754693e+00 2.1921055713122467e+01
1.8989442868754693e+00 2.1921055713122467e+01
1.8989442868754693e+00 2.1921055713122467e+01
ITEM: ATOMS id type xs ys zs
818 5 0.143561 0.0482676 0.0462727
715 4 0.129428 0.185517 0.0104727
134 5 0.159494 0.0455992 0.145278
717 5 0.120779 0.144931 0.986642
133 4 0.137454 0.010414 0.119284
12 5 0.303658 0.058319 0.091852
274 4 0.340158 0.0294208 0.103511
276 5 0.332609 0.014585 0.149768
370 4 0.253863 0.158256 0.0738282
371 5 0.228412 0.177922 0.109088
507 5 0.298568 0.179158 0.0793224
126 5 0.408578 0.0893676 0.0617456
719 5 0.455875 0.120388 0.157445
124 4 0.441576 0.124319 0.0547485
785 5 0.478019 0.101955 0.0346479
599 5 0.573459 0.173845 0.105697
804 5 0.660747 0.141177 0.0241404
802 4 0.65727 0.0971088 0.0420684
803 5 0.618327 0.0790669 0.0239554
809 5 0.657495 0.0903584 0.127695
808 4 0.656129 0.0679815 0.171042
764 5 0.778719 0.0785511 0.225628
375 5 0.830608 0.0923874 0.116143
509 5 0.802569 0.111866 0.047242
373 4 0.835789 0.0836813 0.0682262
707 5 0.97801 0.0766941 0.184954
763 4 0.791438 0.115845 0.199979
450 5 0.84461 0.970932 0.158978
815 5 0.901786 0.0685169 0.0161587
737 5 0.173709 0.172489 0.0319475
695 5 0.132568 0.217522 0.149711
694 4 0.174119 0.232312 0.16708
498 5 0.195236 0.368867 0.105852