LAMMPS data file via write_data, version 29 Sep 2021, timestep = 20000000

864 atoms
5 atom types

1.901709138539097 21.91829086145882 xlo xhi
1.901709138539097 21.91829086145882 ylo yhi
1.901709138539097 21.91829086145882 zlo zhi

Masses

1 39.0983
2 26.981538
3 28.0855
4 15.9994
5 2

Atoms # atomic

818 5 4.692257399016545 2.5368926097990148 2.6422396287159224 -4 4 -2
715 4 4.2635311218181595 5.676342382771052 2.0650015594277282 -3 -3 -6
134 5 5.062404386265264 2.707012275144058 4.7230483524865505 2 -1 6
717 5 4.540428651240145 4.759392547442934 1.9259740502621412 -3 -3 -6
133 4 4.619606483357284 2.013102829740562 4.20172250993498 2 -1 6
12 5 8.205114915833356 3.2678187303440884 3.9069629158461727 -4 3 3
274 4 8.944548021256898 2.6615355117761847 3.9573487712312496 -4 3 3
276 5 8.83025029744122 2.292852532466612 4.861426531228193 -4 3 3
370 4 6.86964367553613 4.809394155079209 3.4667502546275806 2 3 1
371 5 6.1580847927207305 5.1008822284418525 3.997666649810299 2 3 1
507 5 7.506664999490306 5.574611895429532 3.4057187882527247 2 3 1
126 5 10.073946868800979 3.786987220845823 3.62931856298328 7 -2 -2
719 5 11.44991549031721 4.396926659431966 4.938440496761 0 -6 3
124 4 10.75451403767465 4.500504348120435 3.50379434059202 7 -1 -2
785 5 11.358609742844731 4.144069952332562 2.8495624548838734 7 -1 -2
599 5 13.406313567103632 5.2811791440416425 3.8265563489515797 6 -1 0
804 5 15.15479257480742 4.52136061877899 2.6533288913628796 2 2 -5
802 4 15.119219523727995 3.5552375085237315 2.7494493305285412 2 2 -5
803 5 14.298657568800165 3.310006835844569 2.394587856662228 2 2 -5
809 5 14.783750563118886 3.4685101899607735 4.609950729172205 -5 -2 5
808 4 14.716844998124497 3.0287391680724567 5.5031432746492825 -5 -2 5
764 5 17.30162580120404 3.7459100561609153 5.755949050744892 0 -2 3
375 5 18.72887470497016 3.9472193995192084 4.1982201278960805 4 6 4
509 5 17.943981679778314 4.401502447490036 2.9084686372657718 4 6 4
373 4 18.663435965338486 3.833373537414409 3.236025530444043 4 6 4
707 5 21.67179303344979 3.4935566395515414 5.885779107678943 3 -2 1
763 4 18.1182722398799 4.193778488932974 5.826227781888532 0 -2 3
450 5 18.622586139725247 2.1126585904590165 5.40337964721129 -2 1 -3
815 5 19.89660892513282 3.6699258246191895 2.1437432527982474 -1 6 -1
737 5 5.134577474504246 6.137776593508809 1.9367790339961115 -3 -3 -7
695 5 4.700556151973597 6.955193222116081 4.703060988385737 1 -5 2
694 4 5.255644255844112 6.530416349245341 5.3386320903276205 1 -5 2
498 5 5.602863458328031 9.393981295731923 3.9667289522925486 -2 4 1
218 5 2.792152037437747 6.695945909172576 3.1934299995233157 2 10 1
64 4 2.13989859208602 9.876336280826695 2.613774126447895 0 -3 2
536 5 2.6152967472109983 8.127162114354057 5.409627740343094 2 3 6
429 5 2.117885837970139 8.077719192258284 3.1180875410113496 2 9 1
217 4 2.473466630131603 7.38376629056895 3.7946193001742934 2 10 1
605 5 9.80546816235006 6.335240190401472 4.301056929953646 -3 0 1
656 5 6.2493220520611 8.157137389653816 4.496614694956188 -2 4 1
4 4 6.446539375734628 8.888903240429354 3.922499912480488 -2 4 1
604 4 8.981503849418516 6.627656303825152 4.631834904381062 -3 0 1
734 5 7.516044774519127 8.61709103175589 2.29260196909255 -4 2 1
606 5 9.110371611438136 7.576367272609937 4.683519281753508 -3 0 1
661 4 9.375548872560291 9.51572787689651 4.1774791590455 4 0 4
663 5 8.855478608339514 9.2456676215823 3.362017233786185 4 0 4
864 5 11.683313431437043 9.453639837932467 2.054069737964382 -2 1 0
600 5 12.951519604895209 6.249728748014899 2.8735287743658855 6 -1 0
598 4 13.56019952015702 6.173965817329476 3.602852767526156 6 -1 0
723 5 13.240391178232905 7.522178170780169 4.905838296651478 -3 -2 -2
721 4 13.114496778480207 8.403258282007194 5.295886229804836 -3 -2 -2
444 5 12.269854159148219 9.32262237527519 4.221191818456958 -1 3 0
525 5 16.661157004766018 6.013098593966119 5.555361821727134 2 1 -2
544 4 16.8728149576809 6.8004777840476685 5.074019495020242 2 1 -2
546 5 17.8308000677992 6.61942228364234 5.15720908940887 5 1 -2
138 5 14.77847824312342 9.19053419298751 3.8649167344005777 -5 0 -6
109 4 15.473581512724568 8.658834580421296 3.4868871333871434 -4 0 -5
140 5 17.35821221426511 9.578245972358559 4.317439805745209 0 3 -3
602 5 16.10250276698304 8.072884373875489 5.866872564105723 0 -3 -1
86 5 15.116544489947586 8.054166008192054 2.8090699173027556 -4 0 -5
227 5 19.10787675288531 6.6514612362226515 2.386655956460432 5 0 -2
226 4 19.772697620053876 7.346364313034864 2.6230043113055785 5 0 -2
228 5 20.509009977069436 6.962596866206291 2.072122462915751 5 0 -2
11 5 19.9617897887512 6.900919626409114 4.52347541196831 -6 -5 -5
10 4 19.613492915181684 7.03410821295335 5.436907082431498 -6 -5 -5
191 5 3.464605276823254 10.331211964871846 3.7196161944532102 3 5 1
841 4 4.296603411871201 10.52861635039707 4.132519380567089 3 5 1
842 5 4.171690054865596 10.780305046386655 5.111301932810061 3 5 1
786 5 4.7756978204043445 11.811705775738998 3.0749465540886183 0 0 -2
320 5 5.615905318557752 13.101181345359374 2.950360879688795 4 -4 -2
150 5 3.188921571707711 13.308920732793123 5.2498985995288825 0 -2 -9
316 4 4.981627774978987 12.568144670645367 2.5389849977734524 0 -1 -2
416 5 7.865380070471326 10.60756170222899 5.266128193517616 2 7 -4
578 5 9.254024861089622 13.254421344640205 5.037556782574169 8 1 -1
577 4 8.517060641324703 13.549144194638805 4.4970700375625645 8 1 -1
744 5 7.7497910660301645 13.266855601381803 5.073463230295065 8 1 -1
353 5 9.024389672986104 12.196252746916459 2.7825465208541917 0 3 3
523 4 9.62583701826852 12.505417596931599 2.0808071508938757 0 3 3
662 5 10.14221794010194 10.089226403696406 3.83695069045387 4 -1 4
338 5 12.705883402445572 10.779422179474128 3.671289660711981 -1 3 0
337 4 12.0224653504725 10.103994242444033 3.7223923897885314 -1 3 0
56 5 12.280400330694166 13.24702952569307 3.068554154215363 2 0 7
57 5 10.80931308577274 13.556751669289866 2.5837846595408385 2 0 7
380 5 14.650299493887106 12.341818610527483 3.4401428704820933 0 2 2
679 4 13.93491796125996 12.386169628370821 2.867286198357098 -1 2 1
562 4 16.192745293486254 12.55246811981808 4.520438789658163 0 3 1
564 5 16.182726599392716 12.810511000404457 5.435362916837582 0 3 1
54 5 16.784728226988506 11.806611497205415 4.545002869805288 0 3 1
437 5 17.640604880088432 13.888379510612033 4.268129227937845 -5 3 -3
137 5 14.11628167090042 11.74805921202556 2.1736523263661316 -1 2 1
66 5 21.242204256211235 10.21650140246191 2.632237568584401 -1 -3 2
793 4 21.06763324609895 11.929263576530383 5.866964428760729 -4 2 -1
141 5 18.509715364808077 10.049050565553157 5.138758507236224 0 3 -3
139 4 18.016518272574224 10.279451357584687 4.304677249866801 0 3 -3
83 5 21.31151256931301 13.09472297506502 3.9080329413335066 1 2 2
794 5 20.675774599204438 11.098825866824269 5.8213368281977385 -4 2 -1
33 5 19.215513293336485 13.815845372143507 3.9384265634596214 -5 3 -3
245 5 18.84676871353252 10.730508452124406 2.9287425509325535 -6 3 6
244 4 19.631557757083883 11.010164455186803 2.4909044971770746 -6 3 6
82 4 20.635441247401715 13.519959498747108 3.3314660275277648 1 1 2
360 5 3.5223327360807306 14.711865507470362 4.59997273772726 0 -2 -9
148 4 3.930485400164525 13.912882890741342 5.023549375297366 0 -2 -9
168 5 2.375731985655645 16.496686377487087 3.8050306731899655 -2 -6 1
649 4 2.6885764446607254 16.39677784399824 4.728770666405787 -2 -6 1
651 5 2.0514943907110803 16.767092873265618 5.392518740095973 -2 -6 1
503 5 4.144495795109142 17.24631396563099 4.985357359955417 0 1 -3
502 4 5.043605805914953 17.73997995614209 5.012635954971101 0 1 -3
736 4 8.319589840992217 15.282255079255764 2.0625534778562638 -4 -2 1
219 5 8.504146510122911 14.71837067675962 2.8935855646689603 -4 -1 1
738 5 7.802413268534184 16.07175159792689 2.3527983082034623 -4 -2 1
493 4 6.927926378583828 17.266659069561307 2.943530094464113 -2 4 -1
494 5 6.083729441353385 17.226831812936744 3.4647701146224406 -2 4 -1
495 5 7.5069309502248505 17.79995120656608 3.446821466689771 -2 4 -1
102 5 8.659471194874492 15.503900152646942 5.5062226245467185 5 -1 -1
100 4 9.257858246366087 16.294154166091843 5.433093291076356 5 -1 -1
55 4 11.613693348325231 13.993533915032009 2.9432758882575603 2 0 7
669 5 9.9820112227136 16.436627383074885 2.141257585790018 6 3 -5
220 4 11.897064186622456 15.618943858663084 5.2734131132332385 -5 3 -1
667 4 10.513868034626531 17.186000760336178 2.0966032190397184 6 3 -5
293 5 11.869388821265463 15.100792781856615 4.4763950730388355 -5 3 -1
111 5 10.9538813664057 15.977437320592777 5.294218939179122 -5 3 0
339 5 10.203890654993268 17.779633212254662 2.771578596972129 6 3 -5
203 5 12.85087699605878 17.13126546044699 5.33070126996671 3 1 1
671 5 12.609873509255287 14.671533573374903 1.9526280567395986 -1 1 -4
530 5 15.48379408819278 14.385097352622376 3.0842585660970165 -3 6 -1
823 4 15.646365552854391 15.155008290604775 2.539800749925416 -3 6 -1
824 5 14.740556134650634 15.293668205125583 2.248912843600916 -3 6 -1
175 4 16.117357902402354 17.688509593570753 3.2585885496453724 6 -3 0
176 5 15.939344432665383 16.722494398525 3.2364122693892994 6 -3 0
260 5 14.87765789311116 15.486894804341203 5.7050562346554905 3 1 -1
361 4 17.375392542399027 17.103536549878488 5.903653223690615 -3 -3 -1
221 5 17.3639796555186 17.820888915477802 5.231882087791129 -3 -3 -1
362 5 17.871121484099184 16.313844171555683 5.511658751920869 -3 -3 -1
31 4 18.56500241824107 14.194962431669454 4.5261609709002215 -5 3 -3
84 5 20.88187207275773 14.425006984222296 3.1229168211955702 1 1 2
517 4 21.07820216780733 16.322385453504175 2.768107134053182 0 3 1
453 5 20.376630243356434 16.730724878889397 3.281610924019315 0 3 1
518 5 21.2132868975763 16.93266238180062 1.9258680386098703 0 3 1
689 5 20.101971122688152 17.889223444981432 5.09201296252407 8 -3 -1
688 4 20.728060649015937 17.72051319206384 5.841397501067652 8 -3 -1
427 4 2.3480214401893527 21.508290923057203 5.536852670694476 -1 5 -3
691 4 3.5732052919828066 18.481607641403357 2.507138234002386 -1 4 1
65 5 2.662970801158516 18.718462869076333 2.7607764176836325 -1 4 1
14 5 3.2930842875781496 21.613201503738765 5.175426940488859 -1 5 -3
693 5 4.088178458948729 18.578489533389497 3.329060236765521 -1 4 1
135 5 5.095704627600912 21.207834786207325 4.468159117865065 2 -2 6
369 5 5.917225806851046 19.27848132875363 4.745020142460747 -5 -1 1
457 4 6.421995900792556 20.15525709021582 4.708964390508091 -5 -1 1
459 5 6.526908979931365 20.424327673030344 5.6566380569521835 -5 -1 1
856 4 8.766089364338725 18.84086416649709 4.063783579878526 -6 2 2
857 5 8.08881835153201 19.43092653676245 4.383668957956923 -6 2 2
858 5 9.39163918779171 18.76958547680995 4.790673004842075 -6 5 2
759 5 13.127154197128508 18.33976459276704 4.427965046607313 3 0 1
231 5 12.14570244972688 19.87014796558349 2.9814705436384155 7 3 -1
762 5 13.731778272586782 20.385610124472294 5.561788012581842 -1 7 2
354 5 9.96492025885329 21.398321674347248 3.0289488810165768 0 0 0
250 4 10.695226366644421 20.916518851123246 2.604115848394081 0 0 0
571 4 13.005824358204185 19.37782946227503 3.069067880718222 7 3 -1
572 5 13.460571728788384 19.70562485306961 2.2535922420566767 7 3 -1
202 4 13.433370367952982 17.928593476987384 5.21809724674134 3 1 1
567 5 16.17407949096564 21.765776011391264 4.656948232621891 4 8 6
351 5 15.421634100588971 18.146087425122502 3.6886305928524745 6 -3 0
565 4 17.00771465886385 21.40809157774483 4.691776473071256 4 8 6
566 5 17.309228498201165 21.458814335156344 3.7913170264394456 4 8 6
294 5 21.616998123674534 20.381035818609345 4.181245718230023 3 4 -3
292 4 21.248032078754832 19.875942373581264 3.4457330662563326 3 4 -3
768 5 21.38370448170182 20.505831714490853 2.692409581370438 6 1 -3
213 5 18.11555867004167 18.167510006529813 3.4757875404504657 -2 3 -1
16 4 19.00123425769662 18.17739569941474 3.6562217098865624 -2 -1 -1
18 5 19.394820365466856 18.889295087745072 3.163525590073892 -2 -1 -1
92 5 20.02637086144923 21.388048711830514 5.434181451912922 -2 0 -3
177 5 3.096020593821172 3.184226579495866 9.023713858667605 -4 -1 -6
627 5 3.3258507515884617 1.9393737707417196 8.029192681784258 -4 -1 -6
432 5 2.226240653144646 5.232148942827955 9.722122908365074 0 4 3
625 4 3.579989023893984 2.84329466301413 8.184046025197006 -4 -1 -6
463 4 4.207910566580583 5.523048806930753 7.534157323458439 6 0 4
465 5 4.035530702148106 4.549392177096878 7.687268490146567 6 0 4
381 5 5.605755454350843 3.103635671232829 6.918874240969022 -4 6 -2
80 5 5.168874397458145 4.653713366593487 9.411368114800592 -1 7 -11
761 5 6.650532626481874 4.028055926358876 6.335420198706776 -4 10 -2
171 5 9.010597251154064 2.0161236675093916 7.284762596354191 -3 8 5
524 5 8.76884582137867 4.843289481769 7.083406559419548 4 5 4
379 4 6.2873919045990565 3.1110936995513816 6.219236934014646 -4 6 -2
709 4 9.617307886181505 3.476914672110814 7.8636041440918705 2 -1 3
711 5 9.554618897973825 3.4547208395869315 8.869411212207087 2 -1 3
394 4 8.047192339648777 5.492255767839765 7.056357509319659 4 5 4
710 5 10.546614428981309 3.193825648019289 7.694307682417088 2 -1 3
211 4 11.387925425925376 4.424759483969931 5.913549488809552 0 -5 3
801 5 13.697476164537232 5.485145267176652 7.546898298353154 -2 1 0
212 5 12.05023011285931 3.932191263236704 6.4012600619897 0 -6 3
131 5 12.04532342490465 2.1286847335577095 8.630233954586949 1 -5 -6
352 4 12.256321107129244 2.6167987064380425 7.793936784717767 1 -5 -6
799 4 14.511108181482417 4.9451287188819775 7.699565625188599 -2 1 0
810 5 14.739502210492846 3.722929377096327 6.22818758258959 -5 -2 5
839 5 15.615113527166312 3.401380679406888 8.999902934436681 -2 4 -2
9 5 16.835699618664023 4.401267647644227 9.31332568823755 -2 4 -1
784 4 16.145023551815335 3.869353061191884 9.701428426771535 -2 4 -1
288 5 15.281237919466811 5.579220700735419 7.874247444831398 -2 1 0
103 4 21.276224129065934 4.336940232607427 5.9112522149187665 2 -3 1
105 5 21.873377481088156 4.906885162268171 6.372003692693895 2 -3 1
765 5 18.494094845840312 3.993354657712685 6.72264618384169 0 -2 3
75 5 19.671182699640035 2.1395570429488076 7.498337682317714 0 4 -1
73 4 19.80616841589011 2.6499847983454377 8.328937454394097 0 4 -1
848 5 19.672496731472027 4.13107572228256 8.437274211104892 -4 -4 3
74 5 19.164921833571043 2.3517265863971053 8.986092435188336 0 4 -1
466 4 19.526114788400978 5.085214477222773 8.391674705164665 -4 -4 3
468 5 19.07311425288322 5.334627770043105 9.282779341534699 -4 -4 3
696 5 4.7733706633656805 6.103397479249773 5.998402432797833 1 -5 2
464 5 3.4688428089937435 5.975023737784985 7.954706756751024 6 0 4
161 5 3.6216306623755212 8.686053760820329 6.46925513638754 2 3 6
160 4 2.649041146224584 8.474533689667043 6.328123238775156 2 3 6
646 4 5.128513547272705 9.577856665744012 7.193350601087727 -1 5 2
828 5 5.204161452347843 7.351688663423742 9.702074987169597 1 2 0
396 5 8.231601332845068 5.978773679804977 6.220894339519927 7 5 4
45 5 6.160831740761455 7.977486824097854 7.8866050457753305 0 0 -2
752 5 7.150606153638649 6.75906278442317 7.925300019406967 0 0 -2
751 4 6.6487113657047 7.345660809141196 8.479142457094998 0 0 -2
225 5 7.617112093168136 8.648899576452589 9.22523482647017 5 -2 -2
767 5 9.293520968893048 9.238898128210593 8.080163426351588 5 3 -1
223 4 8.360368311529868 9.057426809491062 9.709789932741202 5 -2 -2
5 5 8.994571520270583 8.303985011476348 9.772410061524441 5 -2 -2
174 5 12.733672432407584 8.276263216771508 6.184479594921665 -3 -2 -2
587 5 11.064538919467463 7.501159085166025 7.275252072945202 0 0 3
843 5 10.892150641927277 9.552166689475374 7.719658388661595 5 3 -1
586 4 11.338362609812163 6.59106239517253 7.586532715643425 0 0 3
753 5 11.38475988378974 5.974696803651006 6.884599050732742 0 0 3
617 5 10.82564245254117 6.969360510650672 9.62031317370726 0 -8 -3
603 5 12.471002698030663 9.449704593020476 8.849064629047842 -2 3 1
673 4 12.46781169472446 9.387408789437591 7.912133853789735 -2 3 1
766 4 9.953678237725436 9.389847670726791 7.374816105481818 5 3 -1
446 5 17.83927051721276 6.713085185955158 7.989102993780195 -5 0 3
445 4 16.979180971898284 6.536512078451912 8.18489938870125 -5 0 3
773 5 14.749903200322493 8.717480515238591 6.396899259989196 0 -3 -1
601 4 15.72047540777563 8.63158886359449 6.602065498890558 0 -3 -1
614 5 16.47038625970244 7.161168618646064 7.689360295500823 -5 -1 3
193 4 14.453081900007751 7.25284058788619 9.903096296945042 3 3 -3
635 5 16.58751129734393 9.81306962153025 7.237728805774683 -7 -8 -4
194 5 14.100955833304962 7.912734835050095 9.2656177671884 3 0 -3
108 5 19.424103235831964 8.654370553451066 6.109180432818018 3 0 -3
106 4 19.383292355208162 9.544670240040656 6.423097334241578 3 0 -3
107 5 18.639602940802177 9.62216649297569 7.0461025129984725 3 0 -3
95 5 21.67287349772194 7.418992163854599 7.26330442585098 6 5 1
94 4 21.739028180052024 6.71808800949292 8.023151827201447 6 5 1
96 5 20.92374062327147 6.156195719403444 8.013779692168209 6 5 1
846 5 19.955747369285614 6.392598524958192 5.9395493869288805 -6 -5 -5
20 5 21.08220461022996 9.808151767500409 8.472379881256625 2 4 4
497 5 5.528893367677197 13.427059586026116 5.982421504587756 -2 -3 2
308 5 4.727405905907005 9.997321599751496 7.984310834524177 -1 5 2
401 5 2.8541314642796003 10.662273698007487 9.583560336993703 8 1 -1
812 5 3.6477301643152487 12.56369274496365 8.941023777172159 -4 0 1
400 4 3.781970836902767 10.858469127565263 9.381938922424872 8 1 -1
811 4 3.8210321700394143 13.49770908112253 8.549660695174673 -4 0 1
813 5 4.750445524663455 13.513213268474447 8.19810525795481 -4 0 1
595 4 6.184628409969669 13.2845631086413 6.709109936926356 -2 -3 2
596 5 6.597705184539767 12.350399274929863 6.634839191278464 -2 -3 2
648 5 5.970127852570348 10.040222164272553 7.158476473001631 -1 5 2
417 5 8.64286250282668 11.045811617947777 6.412447018199187 2 7 -4
415 4 7.70125215500793 11.026283985701077 6.099416574931644 2 7 -4
392 5 9.821477684487 12.168150517631508 9.739662974095477 -1 2 1
674 5 12.86717959555007 10.214592787392405 7.544084808752055 -2 3 1
425 5 10.251327029856075 11.19392047067197 6.404648375726274 7 4 0
424 4 10.628051623341944 12.092793438376686 6.11233427417737 7 4 0
426 5 10.510673590924698 12.544537715139809 6.974588732257893 7 4 0
29 5 12.741272321321814 12.05250810339051 6.531340833769557 6 0 7
743 5 13.586300292538931 11.961039296846696 7.86094667521913 6 0 6
742 4 13.436925272766102 11.543823064017117 7.0032586938619765 6 0 6
310 4 10.115522105650818 13.500691027987752 8.780329818954993 1 3 6
636 5 17.022128212495065 11.331797100409426 7.552667824510278 -7 -8 -4
553 4 14.564520863854188 12.173685538715208 9.511118497702892 0 -3 -2
407 5 15.345590507971233 12.675785131915438 9.027431750117284 0 -3 -2
541 4 16.51086869379332 13.219147504383931 7.751694870013066 2 -2 2
634 4 17.2564891509259 10.412609160439864 7.642763395979234 -7 -8 -4
543 5 17.398796622054775 13.585119323074702 7.5311490584955365 2 -2 2
422 5 17.49538760792816 10.457721479900728 9.300407447865346 0 2 3
795 5 20.54131768292924 12.445464308648166 6.479410330875121 -4 2 -1
7 4 21.11369291577942 10.173265939709395 9.343449706519738 2 4 4
232 4 20.375949261574096 12.692328109831294 9.157605565281123 -4 -1 0
234 5 20.570938181610327 11.689342527773368 9.128726663369424 -4 -1 0
698 5 19.407811902670648 12.878990607794673 9.120617183431918 -4 0 0
770 5 2.1067049973485297 14.05787607106128 7.563196807186265 -2 2 1
757 4 1.9157971179695206 14.9898939490961 7.25826206376766 -3 2 0
680 5 2.344145724561735 15.116805521183144 6.362492614851393 -3 2 0
849 5 2.678071041278951 16.770450779142124 8.222663667332094 -3 2 -2
847 4 2.956976547137654 17.60490448766975 8.608257980951432 -3 2 -2
720 5 2.8953958834688165 17.700010799318555 9.57315773578176 1 -1 -2
800 5 7.256877511223544 14.651148151367016 7.973281849560517 1 4 3
850 4 8.098010582095206 15.14768046655305 8.205715857722659 0 4 4
851 5 7.807039133173098 15.719727335859327 8.963443588542395 0 4 4
629 5 9.456309580981653 16.546054902388654 6.407080532181234 5 -1 0
775 4 7.299492984054598 17.257873226267428 9.828018510034502 3 1 2
312 5 9.310305279862064 14.066475927204793 8.552646567023519 1 3 6
238 4 9.50686070125112 17.802517929642537 7.802841102857644 -1 -4 3
240 5 9.84408571577421 17.302224055604057 8.539497744469596 -1 -4 3
441 5 6.582584684283361 17.68365993609468 9.288978971230044 3 1 2
311 5 10.869878312052569 14.134871234597245 8.771083298797151 1 3 6
282 5 12.74945439280208 16.108539125281474 9.006086830362602 -4 -1 0
280 4 11.950677861256 15.71255960018833 9.37802500771071 -4 -1 0
364 4 13.514707168806128 17.730739053787055 8.137944247850566 2 -5 3
545 5 15.992757836742596 13.930115479596216 7.149905859864555 5 -2 2
259 4 15.509493839628728 15.40701079217639 6.4172605266488185 3 1 -1
261 5 16.07684072971614 16.26809671098788 6.318375616732941 3 1 -1
451 4 16.208986810868403 17.677035248557967 8.975972858428129 -3 3 -1
384 5 16.81486814286683 17.527811741716256 8.257728455287879 -3 3 -1
452 5 15.260058145174224 17.48786387348283 8.659681926372517 -3 3 -1
383 5 19.03625840169244 14.378978714592284 6.01607757352301 5 2 -2
382 4 19.143936555281066 14.252881872249668 6.993902721014157 5 2 -2
296 5 20.072710423615966 14.422746536386049 7.096858431277259 5 2 -2
385 4 19.228885081499012 16.642909118707962 8.081901918607134 7 4 -4
267 5 19.767830117260804 16.305064239568544 8.815469582955217 7 4 -4
386 5 18.943215940020455 15.797847784422174 7.712092837114225 7 4 -4
690 5 20.25459521592814 17.40282342134364 6.6535937259465445 8 -3 -1
563 5 20.879378872374087 14.168890970269176 9.747769376949046 -6 -2 5
855 5 21.671084246854463 15.544049920825282 9.726481114679272 -6 -2 5
356 5 5.2296599691068 17.932519732334853 5.953805493718651 0 1 -3
214 4 2.481018181665207 20.352324698824596 8.388637147931732 3 -5 6
216 5 2.7667029546211817 19.4095689672338 8.361394785040156 3 -5 6
215 5 2.5776602132607405 20.54608330641097 9.383677517020615 3 -5 6
378 5 4.7173171355152945 18.039133183317325 8.241819237028505 1 -5 0
376 4 5.633795008672881 18.090819847184715 7.857222147264975 1 -5 0
428 5 2.5392579585073456 21.239660029567176 6.455184983485003 -1 5 -3
239 5 8.66178011079409 17.932836901384313 8.162476153883023 -1 -4 3
377 5 5.965472452675587 19.049707684376976 7.890051908825327 1 -5 0
169 4 8.875320921138545 21.25350927237847 6.690475264735683 -3 7 5
639 5 6.294231019883806 21.016839654346942 8.477526303839891 1 -1 4
637 4 6.4785584190394765 20.46938843732713 7.7277822743245865 1 -1 4
317 5 7.399321605328654 20.602931945384885 7.599615304607599 1 -1 4
170 5 9.730699931179572 20.79682144518843 6.794173860472785 -3 7 5
283 4 9.365707774893789 19.877296458440895 9.880020987348901 -5 1 1
640 4 10.976938910870938 19.39948134984788 6.121344287994951 -10 0 0
641 5 10.618435702356285 18.73282786723877 6.7705137657629 -10 0 0
581 5 11.885423215026025 19.10584811826139 6.003428554368797 -10 0 0
99 5 12.320068884948592 21.887932767721026 7.184756691790219 1 -6 -6
252 5 13.53625858674014 18.016693700478022 7.204354647852969 2 -5 3
366 5 13.40891585556085 18.509812407622658 8.672005192158025 2 -5 3
44 5 10.686106385061093 20.888359059824534 9.880625742151281 5 -3 5
672 5 14.512983025635188 21.656249947713864 6.128484921349664 -1 7 2
760 4 14.192635837535114 20.746840591866224 6.365308190861882 -1 7 2
299 5 16.799078107149846 20.036083448870826 7.184951049309041 0 1 1
298 4 17.691576230630005 19.797127256117562 7.388791111221516 0 1 1
583 4 14.900716520590043 21.4244545240899 8.993675531722985 0 -2 -2
584 5 14.677196185320234 21.230611207703653 8.055656294401736 0 -2 -2
585 5 15.816475419730823 21.146336209302248 9.094386085853976 0 -2 -2
13 4 16.82359638729804 20.099495810393933 9.902710789078547 2 3 4
626 5 16.590757065646162 19.257571659810978 9.433321957112419 2 3 4
15 5 17.76445988983852 20.180869708658076 9.708520193771642 2 3 4
39 5 14.053430789978222 20.21592584232405 9.763218427277717 1 6 2
777 5 18.24451385177098 20.335644290582437 6.807780864320148 0 1 1
448 4 19.335457153720668 21.736743549569272 6.018265583253035 -2 0 -3
253 4 19.596003992363094 19.617508520962026 9.379938726220576 -2 -1 0
255 5 19.158004188399378 19.16401711551045 8.63940685513709 -2 -1 0
624 5 20.227961170361034 20.226592392186795 8.878671684756666 -2 -1 0
529 4 2.4998556231818263 4.392847593533274 10.262763369447413 0 8 3
98 5 4.193047977985897 5.128601637664238 12.500694645686254 -1 4 -4
143 5 2.358611875860491 2.1781834576290535 11.528250929440496 -2 7 -3
23 5 5.624634644657633 2.7212605607958937 9.944531943806776 -3 5 2
731 5 2.7676795730153616 3.634584299265261 13.606131803943478 2 0 2
829 4 3.2684018917325064 3.6400075395976925 12.78094378595719 2 0 2
147 5 5.70638534377688 2.1102815683657794 13.612940129451149 -1 -2 0
97 4 4.923246693207021 5.79650051452144 12.527996433485502 -1 4 -4
506 5 5.5905825426026805 4.707724638179374 10.901378188040043 -1 7 -11
831 5 4.111215482175094 3.1993696380563863 13.08889301683549 2 0 2
727 4 8.610851064569221 4.774747995703685 10.296584009331882 -2 0 1
729 5 8.607225105101538 4.775498254749582 11.284506120149965 -2 0 1
728 5 7.7038075814605005 5.073972549994252 10.099152154807827 -2 0 1
701 5 6.021930000494297 2.258819464348799 12.182358455215832 -2 -1 0
264 5 8.050010337432013 2.0642036467018388 13.360041208474161 3 2 -1
145 4 6.041753167151686 2.7653675580691166 13.026908749578826 -1 -2 0
198 5 9.623051202484035 2.2811152534761407 12.90916336657897 2 1 -1
772 4 5.918478275032012 4.544015259736236 10.000224561143876 -1 8 -11
712 4 9.136942720138912 5.3251625823045465 13.438929569040312 1 2 -6
302 5 10.914930833868228 3.7326451669022207 12.092770731176227 2 -1 -3
467 5 11.29462149399439 2.401970075831822 11.211064178680939 2 -1 -3
301 4 11.199561005334584 2.8322561307326524 12.132285554206295 2 -1 -3
51 5 12.514007836947542 2.2622996203869326 13.17894207082873 5 4 1
643 4 13.316574506931211 2.108249700443445 13.725506848838714 5 4 1
537 5 15.214386124061855 4.665286007520274 11.044809511674698 3 -2 0
535 4 14.914518722280679 4.847920979228553 11.967408550544327 3 -2 0
681 5 13.96637588114693 5.215000129362176 11.947068952394893 3 -2 0
515 5 15.759173942583104 3.2554923614503606 12.715512576104587 -2 0 2
574 4 15.835631818860946 2.379301669915583 13.150594049177535 -2 0 2
41 5 17.599869962393885 2.6785179565962336 10.358279067754507 -3 3 -1
575 5 14.886379038452718 2.307043957773155 13.497652675198248 -2 0 2
638 5 21.673564259659344 4.2039459535861345 10.808755724781994 -1 8 3
703 4 20.51236656309874 3.484114750007181 11.813127472139193 -1 3 -1
40 4 18.45010491245814 2.3052362244558102 10.608468994105689 -3 3 -1
704 5 19.706662547208367 3.181668488448882 11.418678858172827 -1 3 -1
504 5 20.25968356574313 4.094956550288318 12.570158229120821 -1 3 -1
358 4 19.98320610447248 5.77088736691412 13.472490118929485 -5 0 1
826 4 4.4049379211996325 7.420760005537341 10.273930988535191 1 2 0
359 5 4.29665330368644 8.324663339874899 10.393373458932457 1 2 -1
447 5 4.7923463803084605 6.377915392451379 11.722608255313256 -1 4 -4
26 5 3.5211692682627795 6.671341998619948 13.546831556875741 4 -3 4
224 5 2.359920080702861 7.784327825940054 13.40720916575991 4 -3 4
268 4 2.419821373149803 9.152864836575716 12.502644777338812 1 -2 4
269 5 2.0390596642080965 9.00783331446454 11.641717724388016 1 -2 4
570 5 6.359932430703618 6.967984583349977 12.744145879324044 2 4 2
158 5 7.161611743781361 8.899057075270292 12.721879264555062 3 -6 0
243 5 9.552178707213653 6.18181865175371 9.941313029972926 0 -8 -3
568 4 7.142373679218982 7.348084036620486 13.173286044739562 2 4 2
157 4 7.309880461146835 9.90276628403587 12.64425955912456 3 -6 0
372 5 8.39638550243077 5.978644518531377 13.336268265068723 1 2 -6
347 5 13.723438142896809 7.022138516998623 10.45742712780303 2 3 -3
322 4 12.429904645888078 6.110448676721081 11.792603869874364 -1 -4 -3
616 4 10.17729330852265 6.8840945099026385 10.259066979019954 0 -8 -3
551 5 13.758297963677448 9.884540659658654 11.037068379516827 8 -1 -2
550 4 12.94507656602903 9.872393607843033 10.465087522483193 8 -1 -2
323 5 11.625032434271926 6.195745495128374 11.234815151447782 -1 -4 -3
324 5 12.094724005776195 6.112277796053038 12.788953423393238 -1 -4 -3
510 5 15.878823024492688 7.901410860909965 11.139820358052075 -7 -1 4
17 5 17.125962561585673 8.94072773184391 10.911301205372796 -7 -1 3
612 5 16.3408482101164 6.134793422888802 13.345096745099852 2 2 -3
355 4 16.625644989227805 8.349586270202117 11.566753824061431 -7 -1 3
93 5 15.641544740342153 9.900718461408726 11.757756883980482 1 -1 0
521 5 17.743856277252117 6.862307154676256 11.324151002769016 6 3 -1
21 5 20.507574317889475 9.687224039592001 9.932483967222574 2 4 4
297 5 21.052275040614962 7.391164603811393 10.3131669673703 3 -3 2
522 5 18.910206138685105 6.038952273425723 11.992759610338467 6 3 -1
520 4 18.313413059660423 6.15000116372738 11.181266295336997 6 3 -1
295 4 20.510340849886713 7.968553600218172 10.870573457501509 3 -3 2
222 5 19.763119519716106 7.355844444566737 11.065912891997154 3 -3 2
270 5 21.780759317729437 9.561908934207983 13.039833375527678 0 -2 4
68 5 19.31062412853788 9.744133860627786 12.32500603150115 -7 1 -1
388 4 19.169088987027383 9.32559090326837 13.15517748349206 -7 1 0
390 5 19.63335191270896 9.896038566373353 13.822667653608114 -7 1 0
402 5 4.343726782510148 10.878520713221537 10.171646817877315 8 1 -1
678 5 4.359352004061124 10.61945279241825 12.40968660213252 3 -3 2
825 5 2.2299881895115408 12.847899987195166 12.40558967077406 10 3 0
490 4 2.946325058302902 13.518677067767388 12.672842503629122 10 3 0
456 5 3.662260478295896 12.930154714502105 13.098798665161668 10 3 0
676 4 4.982030782536884 10.68424404525566 11.693188852993364 3 -3 2
125 5 5.8591189187045885 10.31831741186859 12.044719944360024 7 -2 2
159 5 7.876257547602183 10.092390035410853 11.890035642796915 3 -6 0
835 4 7.460650711410989 12.986371966043498 11.821131275111012 -2 -8 -1
836 5 8.427951009565684 12.85058207559095 11.587993004377736 -2 -8 -1
837 5 7.187128475108761 13.812913539210752 11.432457232333514 -2 -8 -1